 vasp.5.4.4.18Apr17-6-g9f103f2a35 (build Apr 28 2018 00:24:27) complex          
  
 executed on             LinuxIFC date 2021.09.06  03:48:42
 running on   24 total cores
 distrk:  each k-point on   24 cores,    1 groups
 distr:  one band on NCORES_PER_BAND=   4 cores,    6 groups


--------------------------------------------------------------------------------------------------------


 INCAR:
 POTCAR:    PAW_PBE Fe_pv 02Aug2007               
 POTCAR:    PAW_PBE O 08Apr2002                   
 POTCAR:    PAW_PBE Fe_pv 02Aug2007               
   VRHFIN =Fe:  3pd7s1                                                          
   LEXCH  = PE                                                                  
   EATOM  =  2457.4239 eV,  180.6156 Ry                                         
                                                                                
   TITEL  = PAW_PBE Fe_pv 02Aug2007                                             
   LULTRA =        F    use ultrasoft PP ?                                      
   IUNSCR =        1    unscreen: 0-lin 1-nonlin 2-no                           
   RPACOR =    1.750    partial core radius                                     
   POMASS =   55.847; ZVAL   =   14.000    mass and valenz                      
   RCORE  =    2.200    outmost cutoff radius                                   
   RWIGS  =    2.200; RWIGS  =    1.164    wigner-seitz radius (au A)           
   ENMAX  =  293.238; ENMIN  =  219.928 eV                                      
   ICORE  =        3    local potential                                         
   LCOR   =        T    correct aug charges                                     
   LPAW   =        T    paw PP                                                  
   EAUG   =  578.342                                                            
   DEXC   =    0.000                                                            
   RMAX   =    2.249    core radius for proj-oper                               
   RAUG   =    1.300    factor for augmentation sphere                          
   RDEP   =    2.296    radius for radial grids                                 
   RDEPT  =    1.766    core radius for aug-charge                              
                                                                                
   Atomic configuration                                                         
    8 entries                                                                   
     n  l   j            E        occ.                                          
     1  0  0.50     -6993.8440   2.0000                                         
     2  0  0.50      -814.6047   2.0000                                         
     2  1  1.50      -693.3689   6.0000                                         
     3  0  0.50       -89.4732   2.0000                                         
     3  1  1.50       -55.6373   6.0000                                         
     3  2  2.50        -3.8151   7.0000                                         
     4  0  0.50        -4.2551   1.0000                                         
     4  3  2.50        -1.3606   0.0000                                         
   Description                                                                  
     l       E           TYP  RCUT    TYP  RCUT                                 
     1    -55.6372668     23  2.000                                             
     1     -5.4423304     23  2.000                                             
     2     -3.8151096     23  2.200                                             
     2     -5.1756922     23  2.200                                             
     0     -4.2550951     23  2.200                                             
     0     27.2116520     23  2.200                                             
     3     -1.3605826     23  2.200                                             
  local pseudopotential read in
  partial core-charges read in
  partial kinetic energy density read in
  atomic valenz-charges read in
  non local Contribution for L=           1  read in
    real space projection operators read in
  non local Contribution for L=           1  read in
    real space projection operators read in
  non local Contribution for L=           2  read in
    real space projection operators read in
  non local Contribution for L=           2  read in
    real space projection operators read in
  non local Contribution for L=           0  read in
    real space projection operators read in
  non local Contribution for L=           0  read in
    real space projection operators read in
    PAW grid and wavefunctions read in
 
   number of l-projection  operators is LMAX  =           6
   number of lm-projection operators is LMMAX =          18
 
 POTCAR:    PAW_PBE O 08Apr2002                   
   VRHFIN =O: s2p4                                                              
   LEXCH  = PE                                                                  
   EATOM  =   432.3788 eV,   31.7789 Ry                                         
                                                                                
   TITEL  = PAW_PBE O 08Apr2002                                                 
   LULTRA =        F    use ultrasoft PP ?                                      
   IUNSCR =        1    unscreen: 0-lin 1-nonlin 2-no                           
   RPACOR =    1.200    partial core radius                                     
   POMASS =   16.000; ZVAL   =    6.000    mass and valenz                      
   RCORE  =    1.520    outmost cutoff radius                                   
   RWIGS  =    1.550; RWIGS  =    0.820    wigner-seitz radius (au A)           
   ENMAX  =  400.000; ENMIN  =  300.000 eV                                      
   ICORE  =        2    local potential                                         
   LCOR   =        T    correct aug charges                                     
   LPAW   =        T    paw PP                                                  
   EAUG   =  605.392                                                            
   DEXC   =    0.000                                                            
   RMAX   =    1.553    core radius for proj-oper                               
   RAUG   =    1.300    factor for augmentation sphere                          
   RDEP   =    1.550    radius for radial grids                                 
   RDEPT  =    1.329    core radius for aug-charge                              
                                                                                
   Atomic configuration                                                         
    4 entries                                                                   
     n  l   j            E        occ.                                          
     1  0  0.50      -514.6923   2.0000                                         
     2  0  0.50       -23.9615   2.0000                                         
     2  1  0.50        -9.0305   4.0000                                         
     3  2  1.50        -9.5241   0.0000                                         
   Description                                                                  
     l       E           TYP  RCUT    TYP  RCUT                                 
     0    -23.9615318     23  1.200                                             
     0     -9.5240782     23  1.200                                             
     1     -9.0304911     23  1.520                                             
     1      8.1634956     23  1.520                                             
     2     -9.5240782      7  1.500                                             
  local pseudopotential read in
  partial core-charges read in
  partial kinetic energy density read in
  kinetic energy density of atom read in
  atomic valenz-charges read in
  non local Contribution for L=           0  read in
    real space projection operators read in
  non local Contribution for L=           0  read in
    real space projection operators read in
  non local Contribution for L=           1  read in
    real space projection operators read in
  non local Contribution for L=           1  read in
    real space projection operators read in
    PAW grid and wavefunctions read in
 
   number of l-projection  operators is LMAX  =           4
   number of lm-projection operators is LMMAX =           8
 
 Optimization of the real space projectors (new method)

 maximal supplied QI-value         = 17.01
 optimisation between [QCUT,QGAM] = [ 11.40, 22.79] = [ 36.36,145.44] Ry 
 Optimized for a Real-space Cutoff    1.47 Angstroem

   l    n(q)    QCUT    max X(q) W(low)/X(q) W(high)/X(q)  e(spline) 
   1     10    11.395     4.267    0.90E-04    0.11E-03    0.18E-06
   1     10    11.395     5.750    0.14E-03    0.15E-03    0.25E-06
   2      9    11.395    53.656    0.13E-03    0.36E-04    0.15E-06
   2      9    11.395    49.521    0.14E-03    0.36E-04    0.15E-06
   0     10    11.395    31.246    0.58E-04    0.17E-05    0.98E-07
   0     10    11.395    12.201    0.41E-04    0.11E-05    0.82E-07
 Optimization of the real space projectors (new method)

 maximal supplied QI-value         = 24.76
 optimisation between [QCUT,QGAM] = [ 11.39, 22.77] = [ 36.31,145.25] Ry 
 Optimized for a Real-space Cutoff    1.10 Angstroem

   l    n(q)    QCUT    max X(q) W(low)/X(q) W(high)/X(q)  e(spline) 
   0      7    11.387    20.381    0.22E-03    0.48E-03    0.18E-06
   0      7    11.387    15.268    0.22E-03    0.52E-03    0.19E-06
   1      7    11.387     5.964    0.22E-03    0.73E-03    0.24E-06
   1      7    11.387     5.382    0.19E-03    0.60E-03    0.21E-06
  PAW_PBE Fe_pv 02Aug2007               :
 energy of atom  1       EATOM=-2457.4239
 kinetic energy error for atom=    0.0069 (will be added to EATOM!!)
  PAW_PBE O 08Apr2002                   :
 energy of atom  2       EATOM= -432.3788
 kinetic energy error for atom=    0.0224 (will be added to EATOM!!)
 
 
 POSCAR: Fe12 O18                                
  positions in direct lattice
  No initial velocities read in
 exchange correlation table for  LEXCH =        8
   RHO(1)=    0.500       N(1)  =     2000
   RHO(2)=  100.500       N(2)  =     4000
 


--------------------------------------------------------------------------------------------------------


 ion  position               nearest neighbor table
   1  0.000  0.000  0.355-  17 1.94  23 1.94  28 1.94  25 2.12  19 2.12  13 2.12
   2  0.000  0.000  0.645-  16 1.94  22 1.94  29 1.94  26 2.12  20 2.12  14 2.12
   3  0.333  0.667  0.022-  30 1.94  24 1.94  18 1.94  27 2.12  21 2.12  15 2.12
   4  0.667  0.333  0.689-  14 1.94  20 1.94  26 1.94  22 2.12  29 2.12  16 2.12
   5  0.333  0.667  0.311-  13 1.94  19 1.94  25 1.94  23 2.12  28 2.12  17 2.12
   6  0.667  0.333  0.978-  27 1.94  21 1.94  15 1.94  30 2.12  24 2.12  18 2.12
   7  0.000  0.000  0.145-  24 1.94  18 1.94  30 1.94  25 2.12  19 2.12  13 2.12
   8  0.000  0.000  0.855-  21 1.94  15 1.94  27 1.94  26 2.12  20 2.12  14 2.12
   9  0.333  0.667  0.811-  20 1.94  14 1.94  26 1.94  27 2.12  21 2.12  15 2.12
  10  0.333  0.667  0.522-  29 1.94  16 1.94  22 1.94  23 2.12  28 2.12  17 2.12
  11  0.667  0.333  0.478-  28 1.94  17 1.94  23 1.94  22 2.12  29 2.12  16 2.12
  12  0.667  0.333  0.189-  19 1.94  13 1.94  25 1.94  30 2.12  24 2.12  18 2.12
  13  0.306  0.000  0.250-   5 1.94  12 1.94   7 2.12   1 2.12
  14  0.694  0.000  0.750-   4 1.94   9 1.94   8 2.12   2 2.12
  15  0.640  0.667  0.917-   6 1.94   8 1.94   9 2.12   3 2.12
  16  0.973  0.333  0.583-  10 1.94   2 1.94   4 2.12  11 2.12
  17  0.027  0.667  0.417-  11 1.94   1 1.94   5 2.12  10 2.12
  18  0.360  0.333  0.083-   3 1.94   7 1.94  12 2.12   6 2.12
  19  0.000  0.306  0.250-  12 1.94   5 1.94   7 2.12   1 2.12
  20  0.000  0.694  0.750-   9 1.94   4 1.94   8 2.12   2 2.12
  21  0.333  0.973  0.917-   6 1.94   8 1.94   9 2.12   3 2.12
  22  0.667  0.640  0.583-  10 1.94   2 1.94   4 2.12  11 2.12
  23  0.333  0.360  0.417-  11 1.94   1 1.94   5 2.12  10 2.12
  24  0.667  0.027  0.083-   3 1.94   7 1.94  12 2.12   6 2.12
  25  0.694  0.694  0.250-  12 1.94   5 1.94   7 2.12   1 2.12
  26  0.306  0.306  0.750-   9 1.94   4 1.94   8 2.12   2 2.12
  27  0.027  0.360  0.917-   6 1.94   8 1.94   9 2.12   3 2.12
  28  0.640  0.973  0.417-  11 1.94   1 1.94   5 2.12  10 2.12
  29  0.360  0.027  0.583-  10 1.94   2 1.94   4 2.12  11 2.12
  30  0.973  0.640  0.083-   3 1.94   7 1.94  12 2.12   6 2.12
 
  LATTYP: Found a hexagonal cell.
 ALAT       =     5.0350995578
 C/A-ratio  =     2.7324385232
  
  Lattice vectors:
  
 A1 = (   5.0351000000,   0.0000000000,   0.0000000000)
 A2 = (  -2.5175500000,   4.3605240000,   0.0000000000)
 A3 = (   0.0000000000,   0.0000000000,  13.7581000000)


Analysis of symmetry for initial positions (statically):
=====================================================================
 Subroutine PRICEL returns following result:
 
  LATTYP: Found a trigonal (rhomboedric) cell.
 ALAT       =     5.4297801492
 COS(alpha) =     0.5700456062
  
  Lattice vectors:
  
 A1 = (  -2.5175449649,  -1.4535109070,  -4.5860425054)
 A2 = (  -0.0000025175,   2.9070174535,  -4.5860287473)
 A3 = (   2.5175474825,  -1.4535065465,  -4.5860287473)
 
   3 primitive cells build up your supercell.
 

 Routine SETGRP: Setting up the symmetry group for a 
 hexagonal supercell.


 Subroutine GETGRP returns: Found 12 space group operations
 (whereof  6 operations were pure point group operations)
 out of a pool of 24 trial point group operations.


The static configuration has the point symmetry S_6 .
 The point group associated with its full space group is D_3d.


Analysis of symmetry for dynamics (positions and initial velocities):
=====================================================================
 Subroutine PRICEL returns following result:
 
  LATTYP: Found a trigonal (rhomboedric) cell.
 ALAT       =     5.4297801492
 COS(alpha) =     0.5700456062
  
  Lattice vectors:
  
 A1 = (  -2.5175449649,  -1.4535109070,  -4.5860425054)
 A2 = (  -0.0000025175,   2.9070174535,  -4.5860287473)
 A3 = (   2.5175474825,  -1.4535065465,  -4.5860287473)
 
   3 primitive cells build up your supercell.
 

 Routine SETGRP: Setting up the symmetry group for a 
 hexagonal supercell.


 Subroutine GETGRP returns: Found 12 space group operations
 (whereof  6 operations were pure point group operations)
 out of a pool of 24 trial point group operations.


The dynamic configuration has the point symmetry S_6 .
 The point group associated with its full space group is D_3d.


Analysis of structural, dynamic, and magnetic symmetry:
=====================================================================
 Subroutine PRICEL returns following result:
 
  LATTYP: Found a trigonal (rhomboedric) cell.
 ALAT       =     5.4297801492
 COS(alpha) =     0.5700456062
  
  Lattice vectors:
  
 A1 = (  -2.5175449649,  -1.4535109070,  -4.5860425054)
 A2 = (  -0.0000025175,   2.9070174535,  -4.5860287473)
 A3 = (   2.5175474825,  -1.4535065465,  -4.5860287473)
 
   3 primitive cells build up your supercell.
 

 Routine SETGRP: Setting up the symmetry group for a 
 hexagonal supercell.


 Subroutine GETGRP returns: Found 12 space group operations
 (whereof  6 operations were pure point group operations)
 out of a pool of 24 trial point group operations.


The magnetic configuration has the point symmetry S_6 .
 The point group associated with its full space group is D_3d.


 Subroutine INISYM returns: Found 12 space group operations
 (whereof  6 operations are pure point group operations),
 and found     3 'primitive' translations

 
 
 KPOINTS: pymatgen with grid density = 2464 / numb

Automatic generation of k-mesh.
Space group operators:
 irot       det(A)        alpha          n_x          n_y          n_z        tau_x        tau_y        tau_z
    1     1.000000     0.000000     1.000000     0.000000     0.000000     0.000000     0.000000     0.000000
    2    -1.000000     0.000000     1.000000     0.000000     0.000000     0.000000     0.000000     0.000000
    3     1.000000   120.000000     0.000000     0.000000    -1.000000     0.000000     0.000000     0.000000
    4    -1.000000   120.000000     0.000000     0.000000    -1.000000     0.000000     0.000000     0.000000
    5     1.000000   120.000000     0.000000     0.000000     1.000000     0.000000     0.000000     0.000000
    6    -1.000000   120.000000     0.000000     0.000000     1.000000     0.000000     0.000000     0.000000
    7     1.000000   180.000000     1.000000     0.000000     0.000000     0.000001    -0.000000    -0.500000
    8    -1.000000   180.000000     1.000000     0.000000     0.000000     0.000001    -0.000000    -0.500000
    9     1.000000   180.000000     0.500000    -0.866025     0.000000     0.000000     0.000000    -0.500000
   10    -1.000000   180.000000     0.500000    -0.866025     0.000000     0.000000     0.000000    -0.500000
   11     1.000000   180.000000    -0.500000    -0.866025     0.000000     0.000000     0.000000    -0.500000
   12    -1.000000   180.000000    -0.500000    -0.866025     0.000000     0.000000     0.000000    -0.500000
 
 Subroutine IBZKPT returns following result:
 ===========================================
 
 Found     14 irreducible k-points:
 
 Following reciprocal coordinates:
            Coordinates               Weight
  0.000000  0.000000  0.000000      1.000000
  0.166667  0.000000  0.000000      6.000000
  0.333333  0.000000  0.000000      6.000000
  0.500000  0.000000  0.000000      3.000000
  0.166667  0.166667  0.000000      6.000000
  0.333333  0.166667  0.000000     12.000000
  0.333333  0.333333  0.000000      2.000000
  0.000000  0.000000  0.500000      1.000000
  0.166667  0.000000  0.500000      6.000000
  0.333333  0.000000  0.500000      6.000000
  0.500000  0.000000  0.500000      3.000000
  0.166667  0.166667  0.500000      6.000000
  0.333333  0.166667  0.500000     12.000000
  0.333333  0.333333  0.500000      2.000000
 
 Following cartesian coordinates:
            Coordinates               Weight
  0.000000  0.000000  0.000000      1.000000
  0.033101  0.019111  0.000000      6.000000
  0.066202  0.038222  0.000000      6.000000
  0.099303  0.057333  0.000000      3.000000
  0.033101  0.057333  0.000000      6.000000
  0.066202  0.076443  0.000000     12.000000
  0.066202  0.114665  0.000000      2.000000
  0.000000  0.000000  0.036342      1.000000
  0.033101  0.019111  0.036342      6.000000
  0.066202  0.038222  0.036342      6.000000
  0.099303  0.057333  0.036342      3.000000
  0.033101  0.057333  0.036342      6.000000
  0.066202  0.076443  0.036342     12.000000
  0.066202  0.114665  0.036342      2.000000
 
 TETIRR: Found     71 inequivalent tetrahedra from      432


--------------------------------------------------------------------------------------------------------




 Dimension of arrays:
   k-points           NKPTS =     14   k-points in BZ     NKDIM =     14   number of bands    NBANDS=    204
   number of dos      NEDOS =    301   number of ions     NIONS =     30
   non local maximal  LDIM  =      6   non local SUM 2l+1 LMDIM =     18
   total plane-waves  NPLWV = 160000
   max r-space proj   IRMAX =   7161   max aug-charges    IRDMAX=  15885
   dimension x,y,z NGX =    40 NGY =   40 NGZ =  100
   dimension x,y,z NGXF=    80 NGYF=   80 NGZF=  200
   support grid    NGXF=    80 NGYF=   80 NGZF=  200
   ions per type =              12  18
   NGX,Y,Z   is equivalent  to a cutoff of  13.21, 13.21, 12.08 a.u.
   NGXF,Y,Z  is equivalent  to a cutoff of  26.41, 26.41, 24.17 a.u.

 SYSTEM =  unknown system                          
 POSCAR =  Fe12 O18                                

 Startparameter for this run:
   NWRITE =      2    write-flag & timer
   PREC   = accura    normal or accurate (medium, high low for compatibility)
   ISTART =      0    job   : 0-new  1-cont  2-samecut
   ICHARG =      2    charge: 1-file 2-atom 10-const
   ISPIN  =      2    spin polarized calculation?
   LNONCOLLINEAR =      F non collinear calculations
   LSORBIT =      F    spin-orbit coupling
   INIWAV =      1    electr: 0-lowe 1-rand  2-diag
   LASPH  =      F    aspherical Exc in radial PAW
   METAGGA=      F    non-selfconsistent MetaGGA calc.

 Electronic Relaxation 1
   ENCUT  =  500.0 eV  36.75 Ry    6.06 a.u.   9.18  9.18 25.08*2*pi/ulx,y,z
   ENINI  =  500.0     initial cutoff
   ENAUG  =  605.4 eV  augmentation charge cutoff
   NELM   =    100;   NELMIN=  2; NELMDL= -5     # of ELM steps 
   EDIFF  = 0.1E-06   stopping-criterion for ELM
   LREAL  =      T    real-space projection
   NLSPLINE    = F    spline interpolate recip. space projectors
   LCOMPAT=      F    compatible to vasp.4.4
   GGA_COMPAT  = T    GGA compatible to vasp.4.4-vasp.4.6
   LMAXPAW     = -100 max onsite density
   LMAXMIX     =    2 max onsite mixed and CHGCAR
   VOSKOWN=      0    Vosko Wilk Nusair interpolation
   ROPT   =   -0.00025  -0.00025
 Ionic relaxation
   EDIFFG = 0.1E-05   stopping-criterion for IOM
   NSW    =      0    number of steps for IOM
   NBLOCK =      1;   KBLOCK =      1    inner block; outer block 
   IBRION =     -1    ionic relax: 0-MD 1-quasi-New 2-CG
   NFREE  =      0    steps in history (QN), initial steepest desc. (CG)
   ISIF   =      3    stress and relaxation
   IWAVPR =     10    prediction:  0-non 1-charg 2-wave 3-comb
   ISYM   =      2    0-nonsym 1-usesym 2-fastsym
   LCORR  =      T    Harris-Foulkes like correction to forces

   POTIM  = 0.5000    time-step for ionic-motion
   TEIN   =    0.0    initial temperature
   TEBEG  =    0.0;   TEEND  =   0.0 temperature during run
   SMASS  =  -3.00    Nose mass-parameter (am)
   estimated Nose-frequenzy (Omega)   =  0.10E-29 period in steps =****** mass=  -0.579E-27a.u.
   SCALEE = 1.0000    scale energy and forces
   NPACO  =    256;   APACO  = 16.0  distance and # of slots for P.C.
   PSTRESS=    0.0 pullay stress

  Mass of Ions in am
   POMASS =  55.85 16.00
  Ionic Valenz
   ZVAL   =  14.00  6.00
  Atomic Wigner-Seitz radii
   RWIGS  =  -1.00 -1.00
  virtual crystal weights 
   VCA    =   1.00  1.00
   NELECT =     276.0000    total number of electrons
   NUPDOWN=      -1.0000    fix difference up-down

 DOS related values:
   EMIN   =  10.00;   EMAX   =-10.00  energy-range for DOS
   EFERMI =   0.00
   ISMEAR =    -5;   SIGMA  =   0.05  broadening in eV -4-tet -1-fermi 0-gaus

 Electronic relaxation 2 (details)
   IALGO  =     38    algorithm
   LDIAG  =      T    sub-space diagonalisation (order eigenvalues)
   LSUBROT=      F    optimize rotation matrix (better conditioning)
   TURBO    =      0    0=normal 1=particle mesh
   IRESTART =      0    0=no restart 2=restart with 2 vectors
   NREBOOT  =      0    no. of reboots
   NMIN     =      0    reboot dimension
   EREF     =   0.00    reference energy to select bands
   IMIX   =      4    mixing-type and parameters
     AMIX     =   0.40;   BMIX     =  1.00
     AMIX_MAG =   1.60;   BMIX_MAG =  1.00
     AMIN     =   0.10
     WC   =   100.;   INIMIX=   1;  MIXPRE=   1;  MAXMIX= -45

 Intra band minimization:
   WEIMIN = 0.0000     energy-eigenvalue tresh-hold
   EBREAK =  0.12E-09  absolut break condition
   DEPER  =   0.30     relativ break condition  

   TIME   =   0.40     timestep for ELM

  volume/ion in A,a.u.               =      10.07        67.95
  Fermi-wavevector in a.u.,A,eV,Ry     =   1.588581  3.001983 34.335534  2.523591
  Thomas-Fermi vector in A             =   2.687563
 
 Write flags
   LWAVE        =      F    write WAVECAR
   LDOWNSAMPLE  =      F    k-point downsampling of WAVECAR
   LCHARG       =      F    write CHGCAR
   LVTOT        =      F    write LOCPOT, total local potential
   LVHAR        =      F    write LOCPOT, Hartree potential only
   LELF         =      F    write electronic localiz. function (ELF)
   LORBIT       =     11    0 simple, 1 ext, 2 COOP (PROOUT), +10 PAW based schemes


 Dipole corrections
   LMONO  =      F    monopole corrections only (constant potential shift)
   LDIPOL =      F    correct potential (dipole corrections)
   IDIPOL =      0    1-x, 2-y, 3-z, 4-all directions 
   EPSILON=  1.0000000 bulk dielectric constant

 Exchange correlation treatment:
   GGA     =    --    GGA type
   LEXCH   =     8    internal setting for exchange type
   VOSKOWN=      0    Vosko Wilk Nusair interpolation
   LHFCALC =     F    Hartree Fock is set to
   LHFONE  =     F    Hartree Fock one center treatment
   AEXX    =    0.0000 exact exchange contribution

 Linear response parameters
   LEPSILON=     F    determine dielectric tensor
   LRPA    =     F    only Hartree local field effects (RPA)
   LNABLA  =     F    use nabla operator in PAW spheres
   LVEL    =     F    velocity operator in full k-point grid
   LINTERFAST=   F  fast interpolation
   KINTER  =     0    interpolate to denser k-point grid
   CSHIFT  =0.1000    complex shift for real part using Kramers Kronig
   OMEGAMAX=  -1.0    maximum frequency
   DEG_THRESHOLD= 0.2000000E-02 threshold for treating states as degnerate
   RTIME   =   -0.100 relaxation time in fs
  (WPLASMAI=    0.000 imaginary part of plasma frequency in eV, 0.658/RTIME)
   DFIELD  = 0.0000000 0.0000000 0.0000000 field for delta impulse in time
 
 Orbital magnetization related:
   ORBITALMAG=     F  switch on orbital magnetization
   LCHIMAG   =     F  perturbation theory with respect to B field
   DQ        =  0.001000  dq finite difference perturbation B field
   LLRAUG    =     F  two centre corrections for induced B field



--------------------------------------------------------------------------------------------------------


 Static calculation
 charge density and potential will be updated during run
 spin polarized calculation
 Variant of blocked Davidson
 Davidson routine will perform the subspace rotation
 perform sub-space diagonalisation
    after iterative eigenvector-optimisation
 modified Broyden-mixing scheme, WC =      100.0
 initial mixing is a Kerker type mixing with AMIX =  0.4000 and BMIX =      1.0000
 Hartree-type preconditioning will be used
 using additional bands           66
 real space projection scheme for non local part
 use partial core corrections
 calculate Harris-corrections to forces 
   (improved forces if not selfconsistent)
 use gradient corrections 
 use of overlap-Matrix (Vanderbilt PP)
 Fermi weights with tetrahedron method with Bloechl corrections


--------------------------------------------------------------------------------------------------------


  energy-cutoff  :      500.00
  volume of cell :      302.07
      direct lattice vectors                 reciprocal lattice vectors
     5.035100000  0.000000000  0.000000000     0.198605787  0.114665118  0.000000000
    -2.517550000  4.360524000  0.000000000     0.000000000  0.229330236  0.000000000
     0.000000000  0.000000000 13.758100000     0.000000000  0.000000000  0.072684455

  length of vectors
     5.035100000  5.035099558 13.758100000     0.229330216  0.229330236  0.072684455


 
 k-points in units of 2pi/SCALE and weight: pymatgen with grid density = 2464 / numb
   0.00000000  0.00000000  0.00000000       0.014
   0.03310096  0.01911085  0.00000000       0.083
   0.06620193  0.03822171  0.00000000       0.083
   0.09930289  0.05733256  0.00000000       0.042
   0.03310096  0.05733256  0.00000000       0.083
   0.06620193  0.07644341  0.00000000       0.167
   0.06620193  0.11466512  0.00000000       0.028
   0.00000000  0.00000000  0.03634223       0.014
   0.03310096  0.01911085  0.03634223       0.083
   0.06620193  0.03822171  0.03634223       0.083
   0.09930289  0.05733256  0.03634223       0.042
   0.03310096  0.05733256  0.03634223       0.083
   0.06620193  0.07644341  0.03634223       0.167
   0.06620193  0.11466512  0.03634223       0.028
 
 k-points in reciprocal lattice and weights: pymatgen with grid density = 2464 / numb
   0.00000000  0.00000000  0.00000000       0.014
   0.16666667  0.00000000  0.00000000       0.083
   0.33333333  0.00000000  0.00000000       0.083
   0.50000000  0.00000000  0.00000000       0.042
   0.16666667  0.16666667  0.00000000       0.083
   0.33333333  0.16666667  0.00000000       0.167
   0.33333333  0.33333333  0.00000000       0.028
   0.00000000  0.00000000  0.50000000       0.014
   0.16666667  0.00000000  0.50000000       0.083
   0.33333333  0.00000000  0.50000000       0.083
   0.50000000  0.00000000  0.50000000       0.042
   0.16666667  0.16666667  0.50000000       0.083
   0.33333333  0.16666667  0.50000000       0.167
   0.33333333  0.33333333  0.50000000       0.028
 
 position of ions in fractional coordinates (direct lattice) 
   0.00000000  0.00000000  0.35532000
   0.00000000  0.00000000  0.64468000
   0.33333300  0.66666700  0.02198700
   0.66666700  0.33333300  0.68865300
   0.33333300  0.66666700  0.31134700
   0.66666700  0.33333300  0.97801300
   0.00000000  0.00000000  0.14468000
   0.00000000  0.00000000  0.85532000
   0.33333300  0.66666700  0.81134700
   0.33333300  0.66666700  0.52198700
   0.66666700  0.33333300  0.47801300
   0.66666700  0.33333300  0.18865300
   0.30618000  0.00000000  0.25000000
   0.69382000  0.00000000  0.75000000
   0.63951300  0.66666700  0.91666700
   0.97284700  0.33333300  0.58333300
   0.02715300  0.66666700  0.41666700
   0.36048700  0.33333300  0.08333300
   0.00000000  0.30618000  0.25000000
   0.00000000  0.69382000  0.75000000
   0.33333300  0.97284700  0.91666700
   0.66666700  0.63951300  0.58333300
   0.33333300  0.36048700  0.41666700
   0.66666700  0.02715300  0.08333300
   0.69382000  0.69382000  0.25000000
   0.30618000  0.30618000  0.75000000
   0.02715300  0.36048700  0.91666700
   0.63951300  0.97284700  0.41666700
   0.36048700  0.02715300  0.58333300
   0.97284700  0.63951300  0.08333300
 
 position of ions in cartesian coordinates  (Angst):
   0.00000000  0.00000000  4.88852809
   0.00000000  0.00000000  8.86957191
  -0.00000252  2.90701745  0.30249934
   2.51755252  1.45350655  9.47455684
  -0.00000252  2.90701745  4.28354316
   2.51755252  1.45350655 13.45560066
   0.00000000  0.00000000  1.99052191
   0.00000000  0.00000000 11.76757809
  -0.00000252  2.90701745 11.16259316
  -0.00000252  2.90701745  7.18154934
   2.51755252  1.45350655  6.57655066
   2.51755252  1.45350655  2.59550684
   1.54164692  0.00000000  3.43952500
   3.49345308  0.00000000 10.31857500
   1.54164440  2.90701745 12.61159625
   4.05919944  1.45350655  8.02555375
  -1.54164944  2.90701745  5.73254625
   0.97590560  1.45350655  1.14650375
  -0.77082346  1.33510524  3.43952500
  -1.74672654  3.02541876 10.31857500
  -0.77082598  4.24212269 12.61159625
   1.74672906  2.78861178  8.02555375
   0.77082094  1.57191222  5.73254625
   3.28837598  0.11840131  1.14650375
   1.74672654  3.02541876  3.43952500
   0.77082346  1.33510524 10.31857500
  -0.77082598  1.57191222 12.61159625
   0.77082094  4.24212269  5.73254625
   1.74672906  0.11840131  8.02555375
   3.28837598  2.78861178  1.14650375
 


--------------------------------------------------------------------------------------------------------


 k-point  1 :   0.0000 0.0000 0.0000  plane waves:    7605
 k-point  2 :   0.1667 0.0000 0.0000  plane waves:    7656
 k-point  3 :   0.3333 0.0000 0.0000  plane waves:    7662
 k-point  4 :   0.5000 0.0000 0.0000  plane waves:    7694
 k-point  5 :   0.1667 0.1667 0.0000  plane waves:    7671
 k-point  6 :   0.3333 0.1667 0.0000  plane waves:    7672
 k-point  7 :   0.3333 0.3333 0.0000  plane waves:    7683
 k-point  8 :   0.0000 0.0000 0.5000  plane waves:    7658
 k-point  9 :   0.1667 0.0000 0.5000  plane waves:    7652
 k-point 10 :   0.3333 0.0000 0.5000  plane waves:    7690
 k-point 11 :   0.5000 0.0000 0.5000  plane waves:    7676
 k-point 12 :   0.1667 0.1667 0.5000  plane waves:    7648
 k-point 13 :   0.3333 0.1667 0.5000  plane waves:    7670
 k-point 14 :   0.3333 0.3333 0.5000  plane waves:    7662

 maximum and minimum number of plane-waves per node :      1937     1899

 maximum number of plane-waves:      7694
 maximum index in each direction: 
   IXMAX=    9   IYMAX=    9   IZMAX=   25
   IXMIN=   -9   IYMIN=   -9   IZMIN=  -25


 real space projection operators:
  total allocation   :      14841.75 KBytes
  max/ min on nodes  :       3714.50       3708.38


 parallel 3D FFT for wavefunctions:
    minimum data exchange during FFTs selected (reduces bandwidth)
 parallel 3D FFT for charge:
    minimum data exchange during FFTs selected (reduces bandwidth)


 total amount of memory used by VASP MPI-rank0    81083. kBytes
=======================================================================

   base      :      30000. kBytes
   nonlr-proj:       8219. kBytes
   fftplans  :       3262. kBytes
   grid      :       8373. kBytes
   one-center:        248. kBytes
   wavefun   :      30981. kBytes
 
     INWAV:  cpu time    0.0000: real time    0.0001
 Broyden mixing: mesh for mixing (old mesh)
   NGX = 19   NGY = 19   NGZ = 51
  (NGX  = 80   NGY  = 80   NGZ  =200)
  gives a total of  18411 points

 initial charge density was supplied:
 charge density of overlapping atoms calculated
 number of electron     276.0000000 magnetization      70.8000000
 keeping initial charge density in first step


--------------------------------------------------------------------------------------------------------


 Maximum index for non-local projection operator         1736
 Maximum index for augmentation-charges         1180 (set IRDMAX)


--------------------------------------------------------------------------------------------------------


 First call to EWALD:  gamma=   0.264
 Maximum number of real-space cells 4x 4x 2
 Maximum number of reciprocal cells 2x 2x 5

    FEWALD:  cpu time    0.0018: real time    0.0018


--------------------------------------- Iteration      1(   1)  ---------------------------------------


    POTLOK:  cpu time    0.0803: real time    0.0816
    SETDIJ:  cpu time    0.0127: real time    0.0127
     EDDAV:  cpu time   10.6403: real time   10.6916
 BZINTS: Fermi energy: 27.332371;276.000000 electrons
         Band energy:1087.017378;  BLOECHL correction: -0.064817
       DOS:  cpu time    0.0461: real time    0.0462
    --------------------------------------------
      LOOP:  cpu time   10.7794: real time   10.8321

 eigenvalue-minimisations  : 11676
 total energy-change (2. order) : 0.4103260E+04  (-0.1349672E+05)
 number of electron     276.0000000 magnetization      70.8000000
 augmentation part      276.0000000 magnetization      70.8000000

 Free energy of the ion-electron system (eV)
  ---------------------------------------------------
  alpha Z        PSCENC =      1362.55286497
  Ewald energy   TEWEN  =    -25513.06237826
  -Hartree energ DENC   =    -10371.14386018
  -exchange      EXHF   =         0.00000000
  -V(xc)+E(xc)   XCENC  =      1375.27777460
  PAW double counting   =     30224.59406688   -31333.39571732
  entropy T*S    EENTRO =         0.00000000
  eigenvalues    EBANDS =      1087.01737817
  atomic energy  EATOM  =     37271.41975024
  Solvation  Ediel_sol  =         0.00000000
  ---------------------------------------------------
  free energy    TOTEN  =      4103.25987911 eV

  energy without entropy =     4103.25987911  energy(sigma->0) =     4103.25987911


--------------------------------------------------------------------------------------------------------




--------------------------------------- Iteration      1(   2)  ---------------------------------------


     EDDAV:  cpu time   10.3646: real time   10.4004
 BZINTS: Fermi energy: 11.230752;276.000000 electrons
         Band energy:***********;  BLOECHL correction: -0.023456
       DOS:  cpu time    0.0473: real time    0.0474
    --------------------------------------------
      LOOP:  cpu time   10.4119: real time   10.4479

 eigenvalue-minimisations  : 11424
 total energy-change (2. order) :-0.3712566E+04  (-0.3366441E+04)
 number of electron     276.0000000 magnetization      70.8000000
 augmentation part      276.0000000 magnetization      70.8000000

 Free energy of the ion-electron system (eV)
  ---------------------------------------------------
  alpha Z        PSCENC =      1362.55286497
  Ewald energy   TEWEN  =    -25513.06237826
  -Hartree energ DENC   =    -10371.14386018
  -exchange      EXHF   =         0.00000000
  -V(xc)+E(xc)   XCENC  =      1375.27777460
  PAW double counting   =     30224.59406688   -31333.39571732
  entropy T*S    EENTRO =         0.00000000
  eigenvalues    EBANDS =     -2625.54903901
  atomic energy  EATOM  =     37271.41975024
  Solvation  Ediel_sol  =         0.00000000
  ---------------------------------------------------
  free energy    TOTEN  =       390.69346192 eV

  energy without entropy =      390.69346192  energy(sigma->0) =      390.69346192


--------------------------------------------------------------------------------------------------------




--------------------------------------- Iteration      1(   3)  ---------------------------------------


     EDDAV:  cpu time   10.8809: real time   10.9154
 BZINTS: Fermi energy:  8.523159;276.000000 electrons
         Band energy:***********;  BLOECHL correction:  0.000000
       DOS:  cpu time    0.0071: real time    0.0072
    --------------------------------------------
      LOOP:  cpu time   10.8880: real time   10.9225

 eigenvalue-minimisations  : 11964
 total energy-change (2. order) :-0.6474910E+03  (-0.5865092E+03)
 number of electron     276.0000000 magnetization      70.8000000
 augmentation part      276.0000000 magnetization      70.8000000

 Free energy of the ion-electron system (eV)
  ---------------------------------------------------
  alpha Z        PSCENC =      1362.55286497
  Ewald energy   TEWEN  =    -25513.06237826
  -Hartree energ DENC   =    -10371.14386018
  -exchange      EXHF   =         0.00000000
  -V(xc)+E(xc)   XCENC  =      1375.27777460
  PAW double counting   =     30224.59406688   -31333.39571732
  entropy T*S    EENTRO =         0.00000000
  eigenvalues    EBANDS =     -3273.04004302
  atomic energy  EATOM  =     37271.41975024
  Solvation  Ediel_sol  =         0.00000000
  ---------------------------------------------------
  free energy    TOTEN  =      -256.79754208 eV

  energy without entropy =     -256.79754208  energy(sigma->0) =     -256.79754208


--------------------------------------------------------------------------------------------------------




--------------------------------------- Iteration      1(   4)  ---------------------------------------


     EDDAV:  cpu time   11.4255: real time   11.4625
 BZINTS: Fermi energy:  8.271740;276.000000 electrons
         Band energy:***********;  BLOECHL correction:  0.000000
       DOS:  cpu time    0.0074: real time    0.0074
    --------------------------------------------
      LOOP:  cpu time   11.4329: real time   11.4699

 eigenvalue-minimisations  : 12876
 total energy-change (2. order) :-0.3720589E+02  (-0.3680069E+02)
 number of electron     276.0000000 magnetization      70.8000000
 augmentation part      276.0000000 magnetization      70.8000000

 Free energy of the ion-electron system (eV)
  ---------------------------------------------------
  alpha Z        PSCENC =      1362.55286497
  Ewald energy   TEWEN  =    -25513.06237826
  -Hartree energ DENC   =    -10371.14386018
  -exchange      EXHF   =         0.00000000
  -V(xc)+E(xc)   XCENC  =      1375.27777460
  PAW double counting   =     30224.59406688   -31333.39571732
  entropy T*S    EENTRO =         0.00000000
  eigenvalues    EBANDS =     -3310.24593705
  atomic energy  EATOM  =     37271.41975024
  Solvation  Ediel_sol  =         0.00000000
  ---------------------------------------------------
  free energy    TOTEN  =      -294.00343612 eV

  energy without entropy =     -294.00343612  energy(sigma->0) =     -294.00343612


--------------------------------------------------------------------------------------------------------




--------------------------------------- Iteration      1(   5)  ---------------------------------------


     EDDAV:  cpu time   11.2660: real time   11.3011
 BZINTS: Fermi energy:  8.303718;276.000000 electrons
         Band energy:***********;  BLOECHL correction:  0.000000
       DOS:  cpu time    0.0074: real time    0.0074
    CHARGE:  cpu time    0.3812: real time    0.3824
    MIXING:  cpu time    0.0017: real time    0.0019
    --------------------------------------------
      LOOP:  cpu time   11.6563: real time   11.6927

 eigenvalue-minimisations  : 12708
 total energy-change (2. order) :-0.3992222E+00  (-0.3983224E+00)
 number of electron     276.0000058 magnetization      67.8179411
 augmentation part      108.0293503 magnetization      47.0399670

 Broyden mixing:
  rms(total) = 0.80909E+01    rms(broyden)= 0.80904E+01
  rms(prec ) = 0.88373E+01
  weight for this iteration     100.00

 Free energy of the ion-electron system (eV)
  ---------------------------------------------------
  alpha Z        PSCENC =      1362.55286497
  Ewald energy   TEWEN  =    -25513.06237826
  -Hartree energ DENC   =    -10371.14386018
  -exchange      EXHF   =         0.00000000
  -V(xc)+E(xc)   XCENC  =      1375.27777460
  PAW double counting   =     30224.59406688   -31333.39571732
  entropy T*S    EENTRO =         0.00000000
  eigenvalues    EBANDS =     -3310.64515929
  atomic energy  EATOM  =     37271.41975024
  Solvation  Ediel_sol  =         0.00000000
  ---------------------------------------------------
  free energy    TOTEN  =      -294.40265836 eV

  energy without entropy =     -294.40265836  energy(sigma->0) =     -294.40265836


--------------------------------------------------------------------------------------------------------




--------------------------------------- Iteration      1(   6)  ---------------------------------------


    POTLOK:  cpu time    0.0734: real time    0.0741
    SETDIJ:  cpu time    0.0121: real time    0.0121
     EDDAV:  cpu time   12.6786: real time   12.7190
 BZINTS: Fermi energy:  5.536803;276.000000 electrons
         Band energy:***********;  BLOECHL correction: -0.054183
       DOS:  cpu time    0.0508: real time    0.0509
    CHARGE:  cpu time    0.3921: real time    0.3933
    MIXING:  cpu time    0.0018: real time    0.0018
    --------------------------------------------
      LOOP:  cpu time   13.2087: real time   13.2512

 eigenvalue-minimisations  : 14796
 total energy-change (2. order) : 0.5913261E+02  (-0.2532026E+02)
 number of electron     276.0000064 magnetization      62.9859986
 augmentation part      120.7696148 magnetization      54.4339571

 Broyden mixing:
  rms(total) = 0.91440E+01    rms(broyden)= 0.91431E+01
  rms(prec ) = 0.97955E+01
  weight for this iteration     100.00

 eigenvalues of (default mixing * dielectric matrix)
  average eigenvalue GAMMA=   0.3176
  0.3176

 Free energy of the ion-electron system (eV)
  ---------------------------------------------------
  alpha Z        PSCENC =      1362.55286497
  Ewald energy   TEWEN  =    -25513.06237826
  -Hartree energ DENC   =     -9966.10335139
  -exchange      EXHF   =         0.00000000
  -V(xc)+E(xc)   XCENC  =      1376.67383608
  PAW double counting   =     31440.86996110   -32507.81623841
  entropy T*S    EENTRO =         0.00000000
  eigenvalues    EBANDS =     -3699.80449162
  atomic energy  EATOM  =     37271.41975024
  Solvation  Ediel_sol  =         0.00000000
  ---------------------------------------------------
  free energy    TOTEN  =      -235.27004729 eV

  energy without entropy =     -235.27004729  energy(sigma->0) =     -235.27004729


--------------------------------------------------------------------------------------------------------




--------------------------------------- Iteration      1(   7)  ---------------------------------------


    POTLOK:  cpu time    0.0731: real time    0.0735
    SETDIJ:  cpu time    0.0121: real time    0.0122
     EDDAV:  cpu time   11.2347: real time   11.2671
 BZINTS: Fermi energy:  7.090677;276.000000 electrons
         Band energy:***********;  BLOECHL correction: -0.035720
       DOS:  cpu time    0.0510: real time    0.0512
    CHARGE:  cpu time    0.3936: real time    0.3945
    MIXING:  cpu time    0.0018: real time    0.0018
    --------------------------------------------
      LOOP:  cpu time   11.7664: real time   11.8002

 eigenvalue-minimisations  : 12180
 total energy-change (2. order) : 0.2422264E+02  (-0.1149962E+02)
 number of electron     276.0000058 magnetization      58.8107583
 augmentation part      109.3749794 magnetization      40.2661794

 Broyden mixing:
  rms(total) = 0.43767E+01    rms(broyden)= 0.43762E+01
  rms(prec ) = 0.45376E+01
  weight for this iteration     100.00

 eigenvalues of (default mixing * dielectric matrix)
  average eigenvalue GAMMA=   0.6794
  1.0297  0.3291

 Free energy of the ion-electron system (eV)
  ---------------------------------------------------
  alpha Z        PSCENC =      1362.55286497
  Ewald energy   TEWEN  =    -25513.06237826
  -Hartree energ DENC   =    -10208.63899801
  -exchange      EXHF   =         0.00000000
  -V(xc)+E(xc)   XCENC  =      1372.57541648
  PAW double counting   =     32873.37742097   -34001.95027197
  entropy T*S    EENTRO =         0.00000000
  eigenvalues    EBANDS =     -3367.32121653
  atomic energy  EATOM  =     37271.41975024
  Solvation  Ediel_sol  =         0.00000000
  ---------------------------------------------------
  free energy    TOTEN  =      -211.04741210 eV

  energy without entropy =     -211.04741210  energy(sigma->0) =     -211.04741210


--------------------------------------------------------------------------------------------------------




--------------------------------------- Iteration      1(   8)  ---------------------------------------


    POTLOK:  cpu time    0.0755: real time    0.0760
    SETDIJ:  cpu time    0.0125: real time    0.0126
     EDDAV:  cpu time   11.0229: real time   11.0520
 BZINTS: Fermi energy:  6.458941;276.000000 electrons
         Band energy:***********;  BLOECHL correction: -0.034138
       DOS:  cpu time    0.0479: real time    0.0481
    CHARGE:  cpu time    0.3870: real time    0.3879
    MIXING:  cpu time    0.0018: real time    0.0018
    --------------------------------------------
      LOOP:  cpu time   11.5476: real time   11.5782

 eigenvalue-minimisations  : 12132
 total energy-change (2. order) :-0.7212092E+01  (-0.2135042E+01)
 number of electron     276.0000059 magnetization      51.8933529
 augmentation part      111.2667882 magnetization      34.9853915

 Broyden mixing:
  rms(total) = 0.26369E+01    rms(broyden)= 0.26369E+01
  rms(prec ) = 0.26967E+01
  weight for this iteration     100.00

 eigenvalues of (default mixing * dielectric matrix)
  average eigenvalue GAMMA=   1.0864
  2.2885  0.5912  0.3795

 Free energy of the ion-electron system (eV)
  ---------------------------------------------------
  alpha Z        PSCENC =      1362.55286497
  Ewald energy   TEWEN  =    -25513.06237826
  -Hartree energ DENC   =    -10075.04632246
  -exchange      EXHF   =         0.00000000
  -V(xc)+E(xc)   XCENC  =      1366.58743224
  PAW double counting   =     34241.40508147   -35381.93778052
  entropy T*S    EENTRO =         0.00000000
  eigenvalues    EBANDS =     -3490.17815189
  atomic energy  EATOM  =     37271.41975024
  Solvation  Ediel_sol  =         0.00000000
  ---------------------------------------------------
  free energy    TOTEN  =      -218.25950419 eV

  energy without entropy =     -218.25950419  energy(sigma->0) =     -218.25950419


--------------------------------------------------------------------------------------------------------




--------------------------------------- Iteration      1(   9)  ---------------------------------------


    POTLOK:  cpu time    0.0742: real time    0.0746
    SETDIJ:  cpu time    0.0122: real time    0.0123
     EDDAV:  cpu time   11.1995: real time   11.2339
 BZINTS: Fermi energy:  5.871342;276.000000 electrons
         Band energy:***********;  BLOECHL correction: -0.039916
       DOS:  cpu time    0.0510: real time    0.0512
    CHARGE:  cpu time    0.3889: real time    0.3902
    MIXING:  cpu time    0.0019: real time    0.0019
    --------------------------------------------
      LOOP:  cpu time   11.7278: real time   11.7641

 eigenvalue-minimisations  : 12624
 total energy-change (2. order) :-0.4270081E+01  (-0.8357341E+00)
 number of electron     276.0000061 magnetization      50.9407850
 augmentation part      114.2197683 magnetization      37.9108190

 Broyden mixing:
  rms(total) = 0.27696E+01    rms(broyden)= 0.27694E+01
  rms(prec ) = 0.29070E+01
  weight for this iteration     100.00

 eigenvalues of (default mixing * dielectric matrix)
  average eigenvalue GAMMA=   1.0998
  2.8468  0.8046  0.3739  0.3739

 Free energy of the ion-electron system (eV)
  ---------------------------------------------------
  alpha Z        PSCENC =      1362.55286497
  Ewald energy   TEWEN  =    -25513.06237826
  -Hartree energ DENC   =     -9931.72338894
  -exchange      EXHF   =         0.00000000
  -V(xc)+E(xc)   XCENC  =      1362.31441162
  PAW double counting   =     36549.75432860   -37719.12261384
  entropy T*S    EENTRO =         0.00000000
  eigenvalues    EBANDS =     -3604.66255936
  atomic energy  EATOM  =     37271.41975024
  Solvation  Ediel_sol  =         0.00000000
  ---------------------------------------------------
  free energy    TOTEN  =      -222.52958496 eV

  energy without entropy =     -222.52958496  energy(sigma->0) =     -222.52958496


--------------------------------------------------------------------------------------------------------




--------------------------------------- Iteration      1(  10)  ---------------------------------------


    POTLOK:  cpu time    0.0734: real time    0.0737
    SETDIJ:  cpu time    0.0122: real time    0.0122
     EDDAV:  cpu time   11.1444: real time   11.1783
 BZINTS: Fermi energy:  5.958112;276.000000 electrons
         Band energy:***********;  BLOECHL correction: -0.037566
       DOS:  cpu time    0.0501: real time    0.0502
    CHARGE:  cpu time    0.3879: real time    0.3891
    MIXING:  cpu time    0.0019: real time    0.0019
    --------------------------------------------
      LOOP:  cpu time   11.6698: real time   11.7054

 eigenvalue-minimisations  : 12588
 total energy-change (2. order) : 0.4474702E+00  (-0.2499280E+00)
 number of electron     276.0000060 magnetization      50.6250912
 augmentation part      113.4471613 magnetization      37.3364158

 Broyden mixing:
  rms(total) = 0.18669E+01    rms(broyden)= 0.18669E+01
  rms(prec ) = 0.19796E+01
  weight for this iteration     100.00

 eigenvalues of (default mixing * dielectric matrix)
  average eigenvalue GAMMA=   1.0195
  2.6106  0.3726  0.7701  0.6721  0.6721

 Free energy of the ion-electron system (eV)
  ---------------------------------------------------
  alpha Z        PSCENC =      1362.55286497
  Ewald energy   TEWEN  =    -25513.06237826
  -Hartree energ DENC   =     -9948.95708522
  -exchange      EXHF   =         0.00000000
  -V(xc)+E(xc)   XCENC  =      1360.88662761
  PAW double counting   =     36558.87091977   -37731.26767845
  entropy T*S    EENTRO =         0.00000000
  eigenvalues    EBANDS =     -3582.52513540
  atomic energy  EATOM  =     37271.41975024
  Solvation  Ediel_sol  =         0.00000000
  ---------------------------------------------------
  free energy    TOTEN  =      -222.08211474 eV

  energy without entropy =     -222.08211474  energy(sigma->0) =     -222.08211474


--------------------------------------------------------------------------------------------------------




--------------------------------------- Iteration      1(  11)  ---------------------------------------


    POTLOK:  cpu time    0.0732: real time    0.0739
    SETDIJ:  cpu time    0.0121: real time    0.0122
     EDDAV:  cpu time   12.1982: real time   12.2353
 BZINTS: Fermi energy:  6.020612;276.000000 electrons
         Band energy:***********;  BLOECHL correction: -0.034131
       DOS:  cpu time    0.0503: real time    0.0504
    CHARGE:  cpu time    0.3849: real time    0.3859
    MIXING:  cpu time    0.0019: real time    0.0019
    --------------------------------------------
      LOOP:  cpu time   12.7206: real time   12.7597

 eigenvalue-minimisations  : 14184
 total energy-change (2. order) : 0.5815861E+00  (-0.2464025E-01)
 number of electron     276.0000060 magnetization      49.2897754
 augmentation part      113.0200338 magnetization      35.6093368

 Broyden mixing:
  rms(total) = 0.12187E+01    rms(broyden)= 0.12187E+01
  rms(prec ) = 0.12931E+01
  weight for this iteration     100.00

 eigenvalues of (default mixing * dielectric matrix)
  average eigenvalue GAMMA=   1.0476
  2.5798  0.9804  0.9804  0.3774  0.7986  0.5687

 Free energy of the ion-electron system (eV)
  ---------------------------------------------------
  alpha Z        PSCENC =      1362.55286497
  Ewald energy   TEWEN  =    -25513.06237826
  -Hartree energ DENC   =     -9960.18600824
  -exchange      EXHF   =         0.00000000
  -V(xc)+E(xc)   XCENC  =      1360.20370031
  PAW double counting   =     36386.96508508   -37557.33543860
  entropy T*S    EENTRO =         0.00000000
  eigenvalues    EBANDS =     -3572.05810416
  atomic energy  EATOM  =     37271.41975024
  Solvation  Ediel_sol  =         0.00000000
  ---------------------------------------------------
  free energy    TOTEN  =      -221.50052865 eV

  energy without entropy =     -221.50052865  energy(sigma->0) =     -221.50052865


--------------------------------------------------------------------------------------------------------




--------------------------------------- Iteration      1(  12)  ---------------------------------------


    POTLOK:  cpu time    0.0720: real time    0.0723
    SETDIJ:  cpu time    0.0121: real time    0.0121
     EDDAV:  cpu time   13.0743: real time   13.1122
 BZINTS: Fermi energy:  6.081728;276.000000 electrons
         Band energy:***********;  BLOECHL correction: -0.033776
       DOS:  cpu time    0.0480: real time    0.0483
    CHARGE:  cpu time    0.3869: real time    0.3879
    MIXING:  cpu time    0.0019: real time    0.0019
    --------------------------------------------
      LOOP:  cpu time   13.5951: real time   13.6346

 eigenvalue-minimisations  : 15156
 total energy-change (2. order) : 0.2006516E+00  (-0.1956330E-01)
 number of electron     276.0000060 magnetization      46.7827848
 augmentation part      112.6985520 magnetization      33.0081702

 Broyden mixing:
  rms(total) = 0.85196E+00    rms(broyden)= 0.85195E+00
  rms(prec ) = 0.89374E+00
  weight for this iteration     100.00

 eigenvalues of (default mixing * dielectric matrix)
  average eigenvalue GAMMA=   1.1028
  1.9893  1.9893  1.3406  0.3761  0.7490  0.6376  0.6376

 Free energy of the ion-electron system (eV)
  ---------------------------------------------------
  alpha Z        PSCENC =      1362.55286497
  Ewald energy   TEWEN  =    -25513.06237826
  -Hartree energ DENC   =     -9973.58637619
  -exchange      EXHF   =         0.00000000
  -V(xc)+E(xc)   XCENC  =      1359.57569416
  PAW double counting   =     36272.64991249   -37442.00051769
  entropy T*S    EENTRO =         0.00000000
  eigenvalues    EBANDS =     -3558.84882680
  atomic energy  EATOM  =     37271.41975024
  Solvation  Ediel_sol  =         0.00000000
  ---------------------------------------------------
  free energy    TOTEN  =      -221.29987709 eV

  energy without entropy =     -221.29987709  energy(sigma->0) =     -221.29987709


--------------------------------------------------------------------------------------------------------




--------------------------------------- Iteration      1(  13)  ---------------------------------------


    POTLOK:  cpu time    0.0727: real time    0.0730
    SETDIJ:  cpu time    0.0122: real time    0.0122
     EDDAV:  cpu time   12.3430: real time   12.3812
 BZINTS: Fermi energy:  6.144048;276.000000 electrons
         Band energy:***********;  BLOECHL correction: -0.034501
       DOS:  cpu time    0.0526: real time    0.0527
    CHARGE:  cpu time    0.3869: real time    0.3880
    MIXING:  cpu time    0.0022: real time    0.0022
    --------------------------------------------
      LOOP:  cpu time   12.8696: real time   12.9093

 eigenvalue-minimisations  : 14004
 total energy-change (2. order) : 0.4473847E-02  (-0.1190337E-01)
 number of electron     276.0000060 magnetization      43.8520546
 augmentation part      112.4130840 magnetization      30.3246977

 Broyden mixing:
  rms(total) = 0.45709E+00    rms(broyden)= 0.45707E+00
  rms(prec ) = 0.47995E+00
  weight for this iteration     100.00

 eigenvalues of (default mixing * dielectric matrix)
  average eigenvalue GAMMA=   1.4044
  3.6122  3.3307  0.9351  0.9351  0.3764  0.7216  0.7216  0.6022

 Free energy of the ion-electron system (eV)
  ---------------------------------------------------
  alpha Z        PSCENC =      1362.55286497
  Ewald energy   TEWEN  =    -25513.06237826
  -Hartree energ DENC   =     -9992.24005394
  -exchange      EXHF   =         0.00000000
  -V(xc)+E(xc)   XCENC  =      1358.72874225
  PAW double counting   =     36036.80066793   -37203.02982097
  entropy T*S    EENTRO =         0.00000000
  eigenvalues    EBANDS =     -3542.46517546
  atomic energy  EATOM  =     37271.41975024
  Solvation  Ediel_sol  =         0.00000000
  ---------------------------------------------------
  free energy    TOTEN  =      -221.29540324 eV

  energy without entropy =     -221.29540324  energy(sigma->0) =     -221.29540324


--------------------------------------------------------------------------------------------------------




--------------------------------------- Iteration      1(  14)  ---------------------------------------


    POTLOK:  cpu time    0.0733: real time    0.0737
    SETDIJ:  cpu time    0.0124: real time    0.0125
     EDDAV:  cpu time   12.6620: real time   12.7008
 BZINTS: Fermi energy:  6.176550;276.000000 electrons
         Band energy:***********;  BLOECHL correction: -0.032723
       DOS:  cpu time    0.0475: real time    0.0476
    CHARGE:  cpu time    0.3873: real time    0.3884
    MIXING:  cpu time    0.0023: real time    0.0023
    --------------------------------------------
      LOOP:  cpu time   13.1849: real time   13.2253

 eigenvalue-minimisations  : 14760
 total energy-change (2. order) :-0.4775489E-01  (-0.1658971E-01)
 number of electron     276.0000060 magnetization      42.9752616
 augmentation part      112.2261441 magnetization      29.8301012

 Broyden mixing:
  rms(total) = 0.16699E+00    rms(broyden)= 0.16691E+00
  rms(prec ) = 0.17365E+00
  weight for this iteration     100.00

 eigenvalues of (default mixing * dielectric matrix)
  average eigenvalue GAMMA=   1.5135
  5.3808  2.7694  1.2674  0.3764  0.8456  0.8456  0.8758  0.6302  0.6302

 Free energy of the ion-electron system (eV)
  ---------------------------------------------------
  alpha Z        PSCENC =      1362.55286497
  Ewald energy   TEWEN  =    -25513.06237826
  -Hartree energ DENC   =    -10004.88753802
  -exchange      EXHF   =         0.00000000
  -V(xc)+E(xc)   XCENC  =      1357.62478029
  PAW double counting   =     35835.28719378   -36998.49177158
  entropy T*S    EENTRO =         0.00000000
  eigenvalues    EBANDS =     -3531.78605955
  atomic energy  EATOM  =     37271.41975024
  Solvation  Ediel_sol  =         0.00000000
  ---------------------------------------------------
  free energy    TOTEN  =      -221.34315813 eV

  energy without entropy =     -221.34315813  energy(sigma->0) =     -221.34315813


--------------------------------------------------------------------------------------------------------




--------------------------------------- Iteration      1(  15)  ---------------------------------------


    POTLOK:  cpu time    0.0730: real time    0.0734
    SETDIJ:  cpu time    0.0121: real time    0.0121
     EDDAV:  cpu time   10.9866: real time   11.0206
 BZINTS: Fermi energy:  6.160016;276.000000 electrons
         Band energy:***********;  BLOECHL correction: -0.033117
       DOS:  cpu time    0.0511: real time    0.0513
    CHARGE:  cpu time    0.3863: real time    0.3875
    MIXING:  cpu time    0.0024: real time    0.0024
    --------------------------------------------
      LOOP:  cpu time   11.5115: real time   11.5473

 eigenvalue-minimisations  : 12324
 total energy-change (2. order) :-0.1934861E-01  (-0.6481928E-02)
 number of electron     276.0000060 magnetization      42.5631951
 augmentation part      112.2891730 magnetization      29.5934197

 Broyden mixing:
  rms(total) = 0.13724E+00    rms(broyden)= 0.13722E+00
  rms(prec ) = 0.14579E+00
  weight for this iteration     100.00

 eigenvalues of (default mixing * dielectric matrix)
  average eigenvalue GAMMA=   1.5438
  6.0965  2.8407  1.3713  1.0762  0.3764  0.8477  0.8477  0.6929  0.6929  0.5956

 Free energy of the ion-electron system (eV)
  ---------------------------------------------------
  alpha Z        PSCENC =      1362.55286497
  Ewald energy   TEWEN  =    -25513.06237826
  -Hartree energ DENC   =    -10003.04100904
  -exchange      EXHF   =         0.00000000
  -V(xc)+E(xc)   XCENC  =      1357.13746940
  PAW double counting   =     35827.14702171   -36990.05478964
  entropy T*S    EENTRO =         0.00000000
  eigenvalues    EBANDS =     -3533.46143613
  atomic energy  EATOM  =     37271.41975024
  Solvation  Ediel_sol  =         0.00000000
  ---------------------------------------------------
  free energy    TOTEN  =      -221.36250674 eV

  energy without entropy =     -221.36250674  energy(sigma->0) =     -221.36250674


--------------------------------------------------------------------------------------------------------




--------------------------------------- Iteration      1(  16)  ---------------------------------------


    POTLOK:  cpu time    0.0729: real time    0.0738
    SETDIJ:  cpu time    0.0123: real time    0.0123
     EDDAV:  cpu time   12.0664: real time   12.0971
 BZINTS: Fermi energy:  6.182803;276.000000 electrons
         Band energy:***********;  BLOECHL correction: -0.032923
       DOS:  cpu time    0.0455: real time    0.0456
    CHARGE:  cpu time    0.3906: real time    0.3915
    MIXING:  cpu time    0.0025: real time    0.0025
    --------------------------------------------
      LOOP:  cpu time   12.5901: real time   12.6227

 eigenvalue-minimisations  : 13872
 total energy-change (2. order) : 0.5367625E-02  (-0.9689716E-03)
 number of electron     276.0000060 magnetization      42.4478153
 augmentation part      112.1932585 magnetization      29.4673229

 Broyden mixing:
  rms(total) = 0.31996E-01    rms(broyden)= 0.31976E-01
  rms(prec ) = 0.33258E-01
  weight for this iteration     100.00

 eigenvalues of (default mixing * dielectric matrix)
  average eigenvalue GAMMA=   1.5316
  6.2655  2.7891  1.3116  1.3116  1.0819  0.3764  0.8204  0.8204  0.7322  0.7322
  0.6068

 Free energy of the ion-electron system (eV)
  ---------------------------------------------------
  alpha Z        PSCENC =      1362.55286497
  Ewald energy   TEWEN  =    -25513.06237826
  -Hartree energ DENC   =    -10007.80325068
  -exchange      EXHF   =         0.00000000
  -V(xc)+E(xc)   XCENC  =      1357.04967000
  PAW double counting   =     35787.70666975   -36950.58990884
  entropy T*S    EENTRO =         0.00000000
  eigenvalues    EBANDS =     -3528.63055630
  atomic energy  EATOM  =     37271.41975024
  Solvation  Ediel_sol  =         0.00000000
  ---------------------------------------------------
  free energy    TOTEN  =      -221.35713912 eV

  energy without entropy =     -221.35713912  energy(sigma->0) =     -221.35713912


--------------------------------------------------------------------------------------------------------




--------------------------------------- Iteration      1(  17)  ---------------------------------------


    POTLOK:  cpu time    0.0725: real time    0.0727
    SETDIJ:  cpu time    0.0122: real time    0.0123
     EDDAV:  cpu time   11.0277: real time   11.0582
 BZINTS: Fermi energy:  6.183315;276.000000 electrons
         Band energy:***********;  BLOECHL correction: -0.032874
       DOS:  cpu time    0.0432: real time    0.0433
    CHARGE:  cpu time    0.3881: real time    0.3892
    MIXING:  cpu time    0.0026: real time    0.0026
    --------------------------------------------
      LOOP:  cpu time   11.5463: real time   11.5783

 eigenvalue-minimisations  : 12120
 total energy-change (2. order) :-0.7481951E-03  (-0.4306143E-03)
 number of electron     276.0000060 magnetization      42.3618632
 augmentation part      112.1925266 magnetization      29.3944882

 Broyden mixing:
  rms(total) = 0.17393E-01    rms(broyden)= 0.17387E-01
  rms(prec ) = 0.17939E-01
  weight for this iteration     100.00

 eigenvalues of (default mixing * dielectric matrix)
  average eigenvalue GAMMA=   1.5542
  6.4312  2.7537  2.4617  1.0774  1.0774  0.3764  0.8918  0.8918  0.7157  0.7157
  0.6024  0.6550

 Free energy of the ion-electron system (eV)
  ---------------------------------------------------
  alpha Z        PSCENC =      1362.55286497
  Ewald energy   TEWEN  =    -25513.06237826
  -Hartree energ DENC   =    -10007.40964351
  -exchange      EXHF   =         0.00000000
  -V(xc)+E(xc)   XCENC  =      1356.99628192
  PAW double counting   =     35807.94973740   -36971.39254536
  entropy T*S    EENTRO =         0.00000000
  eigenvalues    EBANDS =     -3528.41195472
  atomic energy  EATOM  =     37271.41975024
  Solvation  Ediel_sol  =         0.00000000
  ---------------------------------------------------
  free energy    TOTEN  =      -221.35788731 eV

  energy without entropy =     -221.35788731  energy(sigma->0) =     -221.35788731


--------------------------------------------------------------------------------------------------------




--------------------------------------- Iteration      1(  18)  ---------------------------------------


    POTLOK:  cpu time    0.0746: real time    0.0750
    SETDIJ:  cpu time    0.0126: real time    0.0126
     EDDAV:  cpu time   11.9210: real time   11.9516
 BZINTS: Fermi energy:  6.183468;276.000000 electrons
         Band energy:***********;  BLOECHL correction: -0.033021
       DOS:  cpu time    0.0515: real time    0.0516
    CHARGE:  cpu time    0.3885: real time    0.3894
    MIXING:  cpu time    0.0028: real time    0.0028
    --------------------------------------------
      LOOP:  cpu time   12.4511: real time   12.4830

 eigenvalue-minimisations  : 13668
 total energy-change (2. order) :-0.2691275E-03  (-0.1862830E-04)
 number of electron     276.0000060 magnetization      42.3113662
 augmentation part      112.1888720 magnetization      29.3604820

 Broyden mixing:
  rms(total) = 0.98654E-02    rms(broyden)= 0.98615E-02
  rms(prec ) = 0.10275E-01
  weight for this iteration     100.00

 eigenvalues of (default mixing * dielectric matrix)
  average eigenvalue GAMMA=   1.5211
  6.5536  2.8293  2.4590  1.1423  1.1423  0.9529  0.9529  0.3764  0.7321  0.7321
  0.6917  0.6048  0.6048

 Free energy of the ion-electron system (eV)
  ---------------------------------------------------
  alpha Z        PSCENC =      1362.55286497
  Ewald energy   TEWEN  =    -25513.06237826
  -Hartree energ DENC   =    -10007.61726101
  -exchange      EXHF   =         0.00000000
  -V(xc)+E(xc)   XCENC  =      1356.95339043
  PAW double counting   =     35807.08043915   -36970.58283975
  entropy T*S    EENTRO =         0.00000000
  eigenvalues    EBANDS =     -3528.10212222
  atomic energy  EATOM  =     37271.41975024
  Solvation  Ediel_sol  =         0.00000000
  ---------------------------------------------------
  free energy    TOTEN  =      -221.35815644 eV

  energy without entropy =     -221.35815644  energy(sigma->0) =     -221.35815644


--------------------------------------------------------------------------------------------------------




--------------------------------------- Iteration      1(  19)  ---------------------------------------


    POTLOK:  cpu time    0.0740: real time    0.0748
    SETDIJ:  cpu time    0.0122: real time    0.0123
     EDDAV:  cpu time   12.1299: real time   12.1642
 BZINTS: Fermi energy:  6.184501;276.000000 electrons
         Band energy:***********;  BLOECHL correction: -0.033102
       DOS:  cpu time    0.0492: real time    0.0493
    CHARGE:  cpu time    0.3856: real time    0.3867
    MIXING:  cpu time    0.0027: real time    0.0027
    --------------------------------------------
      LOOP:  cpu time   12.6535: real time   12.6899

 eigenvalue-minimisations  : 13980
 total energy-change (2. order) :-0.7820774E-04  (-0.8447012E-05)
 number of electron     276.0000060 magnetization      42.2949990
 augmentation part      112.1840221 magnetization      29.3521015

 Broyden mixing:
  rms(total) = 0.25988E-02    rms(broyden)= 0.25933E-02
  rms(prec ) = 0.27538E-02
  weight for this iteration     100.00

 eigenvalues of (default mixing * dielectric matrix)
  average eigenvalue GAMMA=   1.5131
  6.6464  2.8576  2.4240  1.4339  1.1480  1.0094  1.0094  0.3764  0.7823  0.7823
  0.7461  0.7461  0.6104  0.6104

 Free energy of the ion-electron system (eV)
  ---------------------------------------------------
  alpha Z        PSCENC =      1362.55286497
  Ewald energy   TEWEN  =    -25513.06237826
  -Hartree energ DENC   =    -10007.96810507
  -exchange      EXHF   =         0.00000000
  -V(xc)+E(xc)   XCENC  =      1356.93350150
  PAW double counting   =     35802.73998945   -36966.19364818
  entropy T*S    EENTRO =         0.00000000
  eigenvalues    EBANDS =     -3527.78020930
  atomic energy  EATOM  =     37271.41975024
  Solvation  Ediel_sol  =         0.00000000
  ---------------------------------------------------
  free energy    TOTEN  =      -221.35823465 eV

  energy without entropy =     -221.35823465  energy(sigma->0) =     -221.35823465


--------------------------------------------------------------------------------------------------------




--------------------------------------- Iteration      1(  20)  ---------------------------------------


    POTLOK:  cpu time    0.0735: real time    0.0738
    SETDIJ:  cpu time    0.0122: real time    0.0122
     EDDAV:  cpu time   11.9844: real time   12.0251
 BZINTS: Fermi energy:  6.184944;276.000000 electrons
         Band energy:***********;  BLOECHL correction: -0.033123
       DOS:  cpu time    0.0504: real time    0.0505
    CHARGE:  cpu time    0.3852: real time    0.3864
    MIXING:  cpu time    0.0028: real time    0.0028
    --------------------------------------------
      LOOP:  cpu time   12.5084: real time   12.5508

 eigenvalue-minimisations  : 13536
 total energy-change (2. order) :-0.2171684E-04  (-0.3317021E-05)
 number of electron     276.0000060 magnetization      42.2900159
 augmentation part      112.1823628 magnetization      29.3493714

 Broyden mixing:
  rms(total) = 0.86798E-03    rms(broyden)= 0.86530E-03
  rms(prec ) = 0.89320E-03
  weight for this iteration     100.00

 eigenvalues of (default mixing * dielectric matrix)
  average eigenvalue GAMMA=   1.4923
  6.6762  2.9476  2.4274  1.6452  0.3764  1.0261  1.0261  1.0168  1.0168  0.8237
  0.7362  0.7362  0.6046  0.6623  0.6623

 Free energy of the ion-electron system (eV)
  ---------------------------------------------------
  alpha Z        PSCENC =      1362.55286497
  Ewald energy   TEWEN  =    -25513.06237826
  -Hartree energ DENC   =    -10008.08250591
  -exchange      EXHF   =         0.00000000
  -V(xc)+E(xc)   XCENC  =      1356.92579653
  PAW double counting   =     35802.01323020   -36965.46381941
  entropy T*S    EENTRO =         0.00000000
  eigenvalues    EBANDS =     -3527.66119474
  atomic energy  EATOM  =     37271.41975024
  Solvation  Ediel_sol  =         0.00000000
  ---------------------------------------------------
  free energy    TOTEN  =      -221.35825636 eV

  energy without entropy =     -221.35825636  energy(sigma->0) =     -221.35825636


--------------------------------------------------------------------------------------------------------




--------------------------------------- Iteration      1(  21)  ---------------------------------------


    POTLOK:  cpu time    0.0726: real time    0.0730
    SETDIJ:  cpu time    0.0121: real time    0.0121
     EDDAV:  cpu time   10.8247: real time   10.8582
 BZINTS: Fermi energy:  6.185099;276.000000 electrons
         Band energy:***********;  BLOECHL correction: -0.033133
       DOS:  cpu time    0.0511: real time    0.0514
    CHARGE:  cpu time    0.3861: real time    0.3872
    MIXING:  cpu time    0.0031: real time    0.0032
    --------------------------------------------
      LOOP:  cpu time   11.3497: real time   11.3851

 eigenvalue-minimisations  : 12108
 total energy-change (2. order) :-0.9647134E-05  (-0.3632094E-06)
 number of electron     276.0000060 magnetization      42.2910574
 augmentation part      112.1819751 magnetization      29.3511539

 Broyden mixing:
  rms(total) = 0.93861E-03    rms(broyden)= 0.93825E-03
  rms(prec ) = 0.98453E-03
  weight for this iteration     100.00

 eigenvalues of (default mixing * dielectric matrix)
  average eigenvalue GAMMA=   1.4982
  6.6918  3.0260  2.2938  2.2938  1.1607  1.1607  1.0148  1.0148  0.3764  0.7962
  0.7962  0.7321  0.7321  0.6664  0.6080  0.6080

 Free energy of the ion-electron system (eV)
  ---------------------------------------------------
  alpha Z        PSCENC =      1362.55286497
  Ewald energy   TEWEN  =    -25513.06237826
  -Hartree energ DENC   =    -10008.12995846
  -exchange      EXHF   =         0.00000000
  -V(xc)+E(xc)   XCENC  =      1356.92435783
  PAW double counting   =     35801.49411053   -36964.94450550
  entropy T*S    EENTRO =         0.00000000
  eigenvalues    EBANDS =     -3527.61250736
  atomic energy  EATOM  =     37271.41975024
  Solvation  Ediel_sol  =         0.00000000
  ---------------------------------------------------
  free energy    TOTEN  =      -221.35826601 eV

  energy without entropy =     -221.35826601  energy(sigma->0) =     -221.35826601


--------------------------------------------------------------------------------------------------------




--------------------------------------- Iteration      1(  22)  ---------------------------------------


    POTLOK:  cpu time    0.0732: real time    0.0735
    SETDIJ:  cpu time    0.0122: real time    0.0122
     EDDAV:  cpu time    9.3630: real time    9.3913
 BZINTS: Fermi energy:  6.185014;276.000000 electrons
         Band energy:***********;  BLOECHL correction: -0.033134
       DOS:  cpu time    0.0456: real time    0.0457
    CHARGE:  cpu time    0.3848: real time    0.3859
    MIXING:  cpu time    0.0032: real time    0.0032
    --------------------------------------------
      LOOP:  cpu time    9.8819: real time    9.9117

 eigenvalue-minimisations  :  9828
 total energy-change (2. order) :-0.1334658E-05  (-0.6161612E-07)
 number of electron     276.0000060 magnetization      42.2936077
 augmentation part      112.1823872 magnetization      29.3538155

 Broyden mixing:
  rms(total) = 0.62911E-03    rms(broyden)= 0.62907E-03
  rms(prec ) = 0.65062E-03
  weight for this iteration     100.00

 eigenvalues of (default mixing * dielectric matrix)
  average eigenvalue GAMMA=   1.4788
  6.6787  3.0357  2.4935  2.3161  1.2403  1.2403  1.0183  1.0183  0.3764  0.8486
  0.8486  0.7232  0.7232  0.7056  0.6055  0.6339  0.6339

 Free energy of the ion-electron system (eV)
  ---------------------------------------------------
  alpha Z        PSCENC =      1362.55286497
  Ewald energy   TEWEN  =    -25513.06237826
  -Hartree energ DENC   =    -10008.11192187
  -exchange      EXHF   =         0.00000000
  -V(xc)+E(xc)   XCENC  =      1356.92434743
  PAW double counting   =     35801.60312710   -36965.05425901
  entropy T*S    EENTRO =         0.00000000
  eigenvalues    EBANDS =     -3527.62979796
  atomic energy  EATOM  =     37271.41975024
  Solvation  Ediel_sol  =         0.00000000
  ---------------------------------------------------
  free energy    TOTEN  =      -221.35826735 eV

  energy without entropy =     -221.35826735  energy(sigma->0) =     -221.35826735


--------------------------------------------------------------------------------------------------------




--------------------------------------- Iteration      1(  23)  ---------------------------------------


    POTLOK:  cpu time    0.0723: real time    0.0726
    SETDIJ:  cpu time    0.0120: real time    0.0120
     EDDAV:  cpu time    8.4974: real time    8.5237
 BZINTS: Fermi energy:  6.184973;276.000000 electrons
         Band energy:***********;  BLOECHL correction: -0.033131
       DOS:  cpu time    0.0520: real time    0.0521
    CHARGE:  cpu time    0.3914: real time    0.3927
    MIXING:  cpu time    0.0035: real time    0.0036
    --------------------------------------------
      LOOP:  cpu time    9.0286: real time    9.0567

 eigenvalue-minimisations  :  8256
 total energy-change (2. order) : 0.3567111E-05  (-0.1933266E-07)
 number of electron     276.0000060 magnetization      42.2948685
 augmentation part      112.1825961 magnetization      29.3546684

 Broyden mixing:
  rms(total) = 0.23863E-03    rms(broyden)= 0.23857E-03
  rms(prec ) = 0.25005E-03
  weight for this iteration     100.00

 eigenvalues of (default mixing * dielectric matrix)
  average eigenvalue GAMMA=   1.4800
  6.6668  3.0900  2.6887  2.2348  1.3966  1.3966  1.0429  1.0429  0.3764  0.9254
  0.9254  0.8216  0.7323  0.7323  0.6735  0.6735  0.6103  0.6103

 Free energy of the ion-electron system (eV)
  ---------------------------------------------------
  alpha Z        PSCENC =      1362.55286497
  Ewald energy   TEWEN  =    -25513.06237826
  -Hartree energ DENC   =    -10008.09465393
  -exchange      EXHF   =         0.00000000
  -V(xc)+E(xc)   XCENC  =      1356.92543615
  PAW double counting   =     35801.87650555   -36965.33216466
  entropy T*S    EENTRO =         0.00000000
  eigenvalues    EBANDS =     -3527.64362384
  atomic energy  EATOM  =     37271.41975024
  Solvation  Ediel_sol  =         0.00000000
  ---------------------------------------------------
  free energy    TOTEN  =      -221.35826378 eV

  energy without entropy =     -221.35826378  energy(sigma->0) =     -221.35826378


--------------------------------------------------------------------------------------------------------




--------------------------------------- Iteration      1(  24)  ---------------------------------------


    POTLOK:  cpu time    0.0745: real time    0.0749
    SETDIJ:  cpu time    0.0123: real time    0.0123
     EDDAV:  cpu time    7.1303: real time    7.1497
 BZINTS: Fermi energy:  6.184961;276.000000 electrons
         Band energy:***********;  BLOECHL correction: -0.033129
       DOS:  cpu time    0.0518: real time    0.0519
    CHARGE:  cpu time    0.3862: real time    0.3875
    MIXING:  cpu time    0.0037: real time    0.0037
    --------------------------------------------
      LOOP:  cpu time    7.6588: real time    7.6801

 eigenvalue-minimisations  :  6492
 total energy-change (2. order) : 0.1751963E-05  (-0.1082019E-07)
 number of electron     276.0000060 magnetization      42.2950633
 augmentation part      112.1826811 magnetization      29.3546962

 Broyden mixing:
  rms(total) = 0.81187E-04    rms(broyden)= 0.81092E-04
  rms(prec ) = 0.84904E-04
  weight for this iteration     100.00

 eigenvalues of (default mixing * dielectric matrix)
[...]
 -0.000  -0.002  -0.000   0.000  -0.001   0.000   0.000  -0.000  -0.006   0.000   0.000   0.000   0.000   0.009   0.000  -0.000
 total augmentation occupancy for first ion, spin component:           2
 -0.003   0.000  -0.000  -0.010   0.000   0.000   0.002   0.001  -0.000   0.000   0.000  -0.003  -0.002   0.000  -0.000  -0.000
  0.000  -0.003   0.000   0.000  -0.010   0.000   0.000   0.000  -0.001   0.000   0.000   0.000   0.000   0.002   0.000  -0.000
  0.000  -0.000  -0.003  -0.000  -0.000  -0.010   0.000  -0.000   0.000   0.001  -0.002  -0.000   0.000  -0.000  -0.002   0.003
 -0.010   0.000  -0.000   0.021  -0.000  -0.000  -0.085  -0.050  -0.000   0.002   0.013   0.049   0.032   0.000  -0.000  -0.008
  0.000  -0.010   0.000  -0.000   0.017   0.000   0.000   0.000   0.076  -0.000  -0.000  -0.000   0.000  -0.043   0.000   0.000
  0.000   0.000  -0.010  -0.000   0.000   0.021   0.013  -0.002  -0.000  -0.050   0.085  -0.008   0.000   0.000   0.032  -0.049
  0.002   0.000   0.000  -0.085  -0.000   0.013   4.286   0.573  -0.000  -0.179  -0.000  -2.422  -0.467  -0.000   0.166   0.002
  0.001   0.000  -0.000  -0.050  -0.000  -0.002   0.573   5.010   0.000  -0.000  -0.179  -0.466  -3.017  -0.000   0.002   0.166
 -0.000  -0.001   0.000  -0.000   0.076  -0.000   0.000   0.000   4.383   0.000  -0.000   0.000  -0.000  -2.380  -0.000   0.000
  0.000   0.000   0.001   0.002  -0.000  -0.050  -0.179  -0.000   0.000   5.010  -0.573   0.166  -0.002  -0.000  -3.017   0.466
  0.000   0.000  -0.002   0.013  -0.000   0.085   0.000  -0.179  -0.000  -0.573   4.286  -0.002   0.166   0.000   0.467  -2.422
 -0.003   0.000  -0.000   0.049   0.000  -0.008  -2.422  -0.466   0.000   0.166  -0.002   1.290   0.329   0.000  -0.129  -0.000
 -0.002  -0.000   0.000   0.032  -0.000   0.000  -0.467  -3.017  -0.000  -0.002   0.166   0.329   1.744   0.000   0.000  -0.129
  0.000   0.002  -0.000   0.000  -0.043   0.000  -0.000  -0.000  -2.380  -0.000   0.000   0.000   0.000   1.229   0.000  -0.000
 -0.000   0.000  -0.002  -0.000   0.000   0.032   0.166   0.002  -0.000  -3.017   0.467  -0.129  -0.000   0.000   1.744  -0.329
 -0.000  -0.000   0.003  -0.008   0.000  -0.049   0.002   0.166   0.000   0.466  -2.422   0.000  -0.129  -0.000  -0.329   1.290
  0.000   0.000  -0.000  -0.000   0.001   0.000  -0.000  -0.000   0.044   0.000  -0.000  -0.000  -0.000  -0.022   0.000   0.000
 -0.000   0.000  -0.000  -0.000   0.001  -0.000   0.000   0.000   0.007   0.000  -0.000  -0.000   0.000  -0.005   0.000   0.000


------------------------ aborting loop because EDIFF is reached ----------------------------------------


 


 total charge     
 
# of ion       s       p       d       tot
------------------------------------------
    1        0.284   6.340   5.853  12.476
    2        0.284   6.340   5.855  12.479
    3        0.284   6.340   5.862  12.486
    4        0.284   6.340   5.852  12.476
    5        0.284   6.340   5.855  12.478
    6        0.284   6.340   5.865  12.489
    7        0.284   6.340   5.851  12.475
    8        0.284   6.340   5.854  12.477
    9        0.283   6.340   5.854  12.478
   10        0.283   6.340   5.869  12.492
   11        0.283   6.340   5.866  12.489
   12        0.283   6.340   5.857  12.480
   13        1.573   3.414   0.000   4.987
   14        1.573   3.414   0.000   4.987
   15        1.573   3.414   0.000   4.987
   16        1.573   3.415   0.000   4.988
   17        1.573   3.415   0.000   4.988
   18        1.573   3.414   0.000   4.987
   19        1.573   3.402   0.000   4.974
   20        1.573   3.401   0.000   4.974
   21        1.573   3.402   0.000   4.975
   22        1.573   3.402   0.000   4.975
   23        1.573   3.402   0.000   4.975
   24        1.573   3.402   0.000   4.975
   25        1.574   3.415   0.000   4.989
   26        1.574   3.414   0.000   4.989
   27        1.574   3.416   0.000   4.990
   28        1.574   3.417   0.000   4.991
   29        1.574   3.417   0.000   4.991
   30        1.574   3.416   0.000   4.991
--------------------------------------------------
tot         31.725 137.473  70.293 239.491
 


 magnetization (x)
 
# of ion       s       p       d       tot
------------------------------------------
    1        0.024   0.036   3.138   3.198
    2        0.024   0.036   3.135   3.196
    3        0.025   0.036   3.132   3.192
    4        0.025   0.036   3.138   3.198
    5        0.025   0.036   3.138   3.199
    6        0.025   0.036   3.130   3.190
    7        0.024   0.036   3.122   3.182
    8        0.024   0.036   3.119   3.180
    9        0.025   0.036   3.120   3.180
   10        0.025   0.036   3.114   3.174
   11        0.025   0.036   3.116   3.177
   12        0.025   0.036   3.120   3.181
   13        0.020   0.139   0.000   0.159
   14        0.020   0.138   0.000   0.159
   15        0.020   0.139   0.000   0.159
   16        0.020   0.140   0.000   0.160
   17        0.020   0.140   0.000   0.160
   18        0.020   0.139   0.000   0.159
   19        0.021   0.143   0.000   0.165
   20        0.021   0.143   0.000   0.164
   21        0.021   0.144   0.000   0.165
   22        0.021   0.143   0.000   0.165
   23        0.021   0.144   0.000   0.165
   24        0.021   0.144   0.000   0.165
   25        0.020   0.135   0.000   0.156
   26        0.020   0.134   0.000   0.155
   27        0.020   0.136   0.000   0.156
   28        0.020   0.137   0.000   0.158
   29        0.020   0.137   0.000   0.157
   30        0.020   0.136   0.000   0.157
--------------------------------------------------
tot          0.669   2.942  37.521  41.132
 
    CHARGE:  cpu time    0.3872: real time    0.3881
    FORLOC:  cpu time    0.0080: real time    0.0080
    FORNL :  cpu time    2.7376: real time    2.7455
    STRESS:  cpu time    8.1806: real time    8.2051
    FORCOR:  cpu time    0.0753: real time    0.0757
    FORHAR:  cpu time    0.0136: real time    0.0137
    MIXING:  cpu time    0.0036: real time    0.0036
    OFIELD:  cpu time    0.0001: real time    0.0001

  FORCE on cell =-STRESS in cart. coord.  units (eV):
  Direction    XX          YY          ZZ          XY          YZ          ZX
  --------------------------------------------------------------------------------------
  Alpha Z  1362.55286  1362.55286  1362.55286
  Ewald   -8201.75422 -8201.75360 -9109.63806     0.00000     0.00002    -0.00000
  Hartree  3504.05531  3504.05517  2999.97299    -0.00000     0.00001    -0.00000
  E(xc)   -1615.75493 -1615.75499 -1617.31923    -0.00004    -0.00000     0.00000
  Local    -163.89557  -163.89648  1232.14454    -0.00106    -0.00003     0.00000
  n-local  -744.38474  -743.27008  -745.83667    -4.16329     0.50367     0.14044
  augment  1844.96013  1844.96084  1846.79111     0.00088     0.00000    -0.00001
  Kinetic  4006.07174  4008.18688  4023.89749     7.63599    -1.98657    -5.08761
  Fock        0.00000     0.00000     0.00000     0.00000     0.00000     0.00000
  -------------------------------------------------------------------------------------
  Total      -6.53440    -6.53440    -7.43497     0.00000     0.00000    -0.00000
  in kB     -34.65860   -34.65860   -39.43523     0.00000     0.00000    -0.00000
  external pressure =      -36.25 kB  Pullay stress =        0.00 kB


 VOLUME and BASIS-vectors are now :
 -----------------------------------------------------------------------------
  energy-cutoff  :      500.00
  volume of cell :      302.07
      direct lattice vectors                 reciprocal lattice vectors
     5.035100000  0.000000000  0.000000000     0.198605787  0.114665118  0.000000000
    -2.517550000  4.360524000  0.000000000     0.000000000  0.229330236  0.000000000
     0.000000000  0.000000000 13.758100000     0.000000000  0.000000000  0.072684455

  length of vectors
     5.035100000  5.035099558 13.758100000     0.229330216  0.229330236  0.072684455


 FORCES acting on ions
    electron-ion (+dipol)            ewald-force                    non-local-force                 convergence-correction
 -----------------------------------------------------------------------------------------------
   0.156E-03 0.366E-03 -.126E+03   -.101E-02 0.523E-03 0.128E+03   0.304E-17 0.130E-17 -.289E+01   -.391E-08 -.725E-09 -.106E-04
   -.402E-03 0.579E-03 0.126E+03   0.101E-02 -.523E-03 -.128E+03   -.651E-17 -.867E-17 0.289E+01   0.589E-08 -.981E-09 0.106E-04
   -.133E-03 0.532E-03 -.126E+03   0.314E-02 -.187E-02 0.128E+03   0.217E-17 -.347E-17 -.289E+01   0.110E-06 -.667E-07 -.494E-05
   -.329E-03 0.645E-03 -.126E+03   -.220E-02 0.121E-02 0.128E+03   0.260E-17 -.434E-18 -.289E+01   -.106E-06 0.579E-07 -.302E-05
   0.829E-04 0.300E-03 0.126E+03   0.220E-02 -.121E-02 -.128E+03   -.130E-17 -.434E-18 0.289E+01   0.108E-06 -.596E-07 0.302E-05
   -.113E-03 0.413E-03 0.126E+03   -.314E-02 0.187E-02 -.128E+03   0.867E-18 -.390E-17 0.289E+01   -.108E-06 0.650E-07 0.494E-05
   0.566E-03 -.105E-02 0.126E+03   0.964E-03 -.523E-03 -.128E+03   0.455E-17 0.217E-17 0.289E+01   0.323E-08 -.426E-08 0.106E-04
   0.104E-02 -.127E-02 -.126E+03   -.964E-03 0.523E-03 0.128E+03   0.629E-17 -.130E-17 -.289E+01   -.210E-08 0.386E-08 -.106E-04
   0.105E-02 -.133E-02 0.126E+03   0.215E-02 -.121E-02 -.128E+03   -.867E-18 0.520E-17 0.289E+01   0.105E-06 -.635E-07 0.302E-05
   0.752E-03 -.110E-02 -.126E+03   0.319E-02 -.187E-02 0.128E+03   -.173E-17 0.217E-17 -.289E+01   0.112E-06 -.615E-07 -.494E-05
   0.855E-03 -.121E-02 0.126E+03   -.319E-02 0.187E-02 -.128E+03   0.651E-17 -.130E-17 0.289E+01   -.111E-06 0.611E-07 0.494E-05
   0.556E-03 -.987E-03 -.126E+03   -.215E-02 0.121E-02 0.128E+03   0.130E-17 -.173E-17 -.289E+01   -.104E-06 0.631E-07 -.302E-05
   -.424E+02 -.134E-02 0.214E-03   0.418E+02 0.106E-02 -.470E-03   0.678E+00 -.236E-17 0.260E-17   -.338E-05 0.270E-07 -.203E-08
   0.424E+02 -.867E-04 -.336E-03   -.418E+02 -.106E-02 0.470E-03   -.678E+00 0.542E-19 0.488E-18   0.338E-05 -.282E-07 0.103E-08
   -.424E+02 -.318E-02 -.588E-02   0.418E+02 0.570E-03 -.997E-03   0.678E+00 -.184E-17 -.867E-18   -.338E-05 -.223E-07 -.171E-05
   -.424E+02 0.238E-02 0.548E-02   0.418E+02 -.163E-02 0.147E-02   0.678E+00 0.217E-18 -.228E-17   -.335E-05 -.539E-08 0.171E-05
   0.424E+02 -.381E-02 -.560E-02   -.418E+02 0.163E-02 -.147E-02   -.678E+00 0.362E-17 0.542E-18   0.335E-05 0.419E-08 -.171E-05
   0.424E+02 0.175E-02 0.576E-02   -.418E+02 -.570E-03 0.997E-03   -.678E+00 -.390E-17 -.726E-17   0.338E-05 0.211E-07 0.170E-05
   0.212E+02 -.367E+02 -.307E-03   -.209E+02 0.362E+02 0.438E-03   -.339E+00 0.587E+00 -.347E-17   0.172E-05 -.291E-05 0.969E-09
   -.212E+02 0.367E+02 0.193E-03   0.209E+02 -.362E+02 -.438E-03   0.339E+00 -.587E+00 0.000E+00   -.171E-05 0.292E-05 -.206E-08
   0.212E+02 -.367E+02 -.557E-02   -.209E+02 0.362E+02 -.150E-02   -.339E+00 0.587E+00 -.347E-17   0.167E-05 -.290E-05 -.171E-05
   0.212E+02 -.367E+02 0.579E-02   -.209E+02 0.362E+02 0.964E-03   -.339E+00 0.587E+00 -.520E-17   0.167E-05 -.294E-05 0.170E-05
   -.212E+02 0.367E+02 -.590E-02   0.209E+02 -.362E+02 -.964E-03   0.339E+00 -.587E+00 0.000E+00   -.167E-05 0.294E-05 -.171E-05
   -.212E+02 0.367E+02 0.546E-02   0.209E+02 -.362E+02 0.150E-02   0.339E+00 -.587E+00 0.000E+00   -.167E-05 0.290E-05 0.171E-05
   0.212E+02 0.367E+02 0.946E-04   -.209E+02 -.362E+02 0.322E-04   -.339E+00 -.587E+00 0.260E-17   0.167E-05 0.289E-05 0.103E-08
   -.212E+02 -.367E+02 0.144E-03   0.209E+02 0.362E+02 -.322E-04   0.339E+00 0.587E+00 -.607E-17   -.167E-05 -.289E-05 0.993E-09
   0.212E+02 0.367E+02 -.412E-02   -.209E+02 -.362E+02 -.303E-02   -.339E+00 -.587E+00 0.911E-17   0.173E-05 0.291E-05 -.171E-05
   -.212E+02 -.367E+02 -.407E-02   0.209E+02 0.362E+02 -.310E-02   0.339E+00 0.587E+00 -.867E-18   -.166E-05 -.295E-05 -.171E-05
   0.212E+02 0.367E+02 0.431E-02   -.209E+02 -.362E+02 0.310E-02   -.339E+00 -.587E+00 0.564E-17   0.166E-05 0.295E-05 0.171E-05
   -.212E+02 -.367E+02 0.436E-02   0.209E+02 0.362E+02 0.303E-02   0.339E+00 0.587E+00 -.434E-17   -.172E-05 -.292E-05 0.171E-05
 -----------------------------------------------------------------------------------------------
   0.150E-01 -.165E-01 -.114E-04   -.995E-13 -.995E-13 -.192E-12   0.111E-15 0.000E+00 0.132E-14   0.140E-07 -.879E-08 0.238E-08
 
 
 POSITION                                       TOTAL-FORCE (eV/Angst)
 -----------------------------------------------------------------------------------
      0.00000      0.00000      4.88853         0.000000     -0.000000     -0.926822
      0.00000      0.00000      8.86957         0.000000     -0.000000      0.926822
     -0.00000      2.90702      0.30250         0.000000     -0.000000     -0.926822
      2.51755      1.45351      9.47456         0.000000     -0.000000     -0.926822
     -0.00000      2.90702      4.28354         0.000000     -0.000000      0.926822
      2.51755      1.45351     13.45560         0.000000     -0.000000      0.926822
      0.00000      0.00000      1.99052         0.000000     -0.000000      0.926822
      0.00000      0.00000     11.76758         0.000000     -0.000000     -0.926822
     -0.00000      2.90702     11.16259         0.000000     -0.000000      0.926822
     -0.00000      2.90702      7.18155         0.000000     -0.000000     -0.926822
      2.51755      1.45351      6.57655         0.000000     -0.000000      0.926822
      2.51755      1.45351      2.59551         0.000000     -0.000000     -0.926822
      1.54165      0.00000      3.43953         0.087024     -0.000000     -0.000000
      3.49345      0.00000     10.31858        -0.087024     -0.000000     -0.000000
      1.54164      2.90702     12.61160         0.087024     -0.000000     -0.000000
      4.05920      1.45351      8.02555         0.087024     -0.000000     -0.000000
     -1.54165      2.90702      5.73255        -0.087024     -0.000000     -0.000000
      0.97591      1.45351      1.14650        -0.087024     -0.000000     -0.000000
     -0.77082      1.33511      3.43953        -0.043512      0.075365     -0.000000
     -1.74673      3.02542     10.31858         0.043512     -0.075365     -0.000000
     -0.77083      4.24212     12.61160        -0.043512      0.075365     -0.000000
      1.74673      2.78861      8.02555        -0.043512      0.075365     -0.000000
      0.77082      1.57191      5.73255         0.043512     -0.075365     -0.000000
      3.28838      0.11840      1.14650         0.043512     -0.075365     -0.000000
      1.74673      3.02542      3.43953        -0.043512     -0.075365     -0.000000
      0.77082      1.33511     10.31858         0.043512      0.075365     -0.000000
     -0.77083      1.57191     12.61160        -0.043512     -0.075365     -0.000000
      0.77082      4.24212      5.73255         0.043512      0.075365     -0.000000
      1.74673      0.11840      8.02555        -0.043512     -0.075365     -0.000000
      3.28838      2.78861      1.14650         0.043512      0.075365     -0.000000
 -----------------------------------------------------------------------------------
    total drift:                                0.014954     -0.016511     -0.000011


--------------------------------------------------------------------------------------------------------



  FREE ENERGIE OF THE ION-ELECTRON SYSTEM (eV)
  ---------------------------------------------------
  free  energy   TOTEN  =      -221.35826229 eV

  energy  without entropy=     -221.35826229  energy(sigma->0) =     -221.35826229
 


--------------------------------------------------------------------------------------------------------


    POTLOK:  cpu time    0.0822: real time    0.0824


--------------------------------------------------------------------------------------------------------


     LOOP+:  cpu time  304.6345: real time  305.5693
    4ORBIT:  cpu time    0.0000: real time    0.0000
 


 total charge     
 
# of ion       s       p       d       tot
------------------------------------------
    1        0.284   6.340   5.853  12.476
    2        0.284   6.340   5.855  12.479
    3        0.284   6.340   5.862  12.486
    4        0.284   6.340   5.852  12.476
    5        0.284   6.340   5.855  12.478
    6        0.284   6.340   5.865  12.489
    7        0.284   6.340   5.851  12.475
    8        0.284   6.340   5.854  12.477
    9        0.283   6.340   5.854  12.478
   10        0.283   6.340   5.869  12.492
   11        0.283   6.340   5.866  12.489
   12        0.283   6.340   5.857  12.480
   13        1.573   3.414   0.000   4.987
   14        1.573   3.414   0.000   4.987
   15        1.573   3.414   0.000   4.987
   16        1.573   3.415   0.000   4.988
   17        1.573   3.415   0.000   4.988
   18        1.573   3.414   0.000   4.987
   19        1.573   3.402   0.000   4.974
   20        1.573   3.401   0.000   4.974
   21        1.573   3.402   0.000   4.975
   22        1.573   3.402   0.000   4.975
   23        1.573   3.402   0.000   4.975
   24        1.573   3.402   0.000   4.975
   25        1.574   3.415   0.000   4.989
   26        1.574   3.414   0.000   4.989
   27        1.574   3.416   0.000   4.990
   28        1.574   3.417   0.000   4.991
   29        1.574   3.417   0.000   4.991
   30        1.574   3.416   0.000   4.991
--------------------------------------------------
tot         31.725 137.473  70.293 239.491
 


 magnetization (x)
 
# of ion       s       p       d       tot
------------------------------------------
    1        0.024   0.036   3.138   3.198
    2        0.024   0.036   3.135   3.196
    3        0.025   0.036   3.132   3.192
    4        0.025   0.036   3.138   3.198
    5        0.025   0.036   3.138   3.199
    6        0.025   0.036   3.130   3.190
    7        0.024   0.036   3.122   3.182
    8        0.024   0.036   3.119   3.180
    9        0.025   0.036   3.120   3.180
   10        0.025   0.036   3.114   3.174
   11        0.025   0.036   3.116   3.177
   12        0.025   0.036   3.120   3.181
   13        0.020   0.139   0.000   0.159
   14        0.020   0.138   0.000   0.159
   15        0.020   0.139   0.000   0.159
   16        0.020   0.140   0.000   0.160
   17        0.020   0.140   0.000   0.160
   18        0.020   0.139   0.000   0.159
   19        0.021   0.143   0.000   0.165
   20        0.021   0.143   0.000   0.164
   21        0.021   0.144   0.000   0.165
   22        0.021   0.143   0.000   0.165
   23        0.021   0.144   0.000   0.165
   24        0.021   0.144   0.000   0.165
   25        0.020   0.135   0.000   0.156
   26        0.020   0.134   0.000   0.155
   27        0.020   0.136   0.000   0.156
   28        0.020   0.137   0.000   0.158
   29        0.020   0.137   0.000   0.157
   30        0.020   0.136   0.000   0.157
--------------------------------------------------
tot          0.669   2.942  37.521  41.132
 
 BZINTS: Fermi energy:  6.184947;276.000000 electrons
         Band energy:***********;  BLOECHL correction: -0.033129

 total amount of memory used by VASP MPI-rank0    81083. kBytes
=======================================================================

   base      :      30000. kBytes
   nonlr-proj:       8219. kBytes
   fftplans  :       3262. kBytes
   grid      :       8373. kBytes
   one-center:        248. kBytes
   wavefun   :      30981. kBytes
 
  
  
 General timing and accounting informations for this job:
 ========================================================
  
                  Total CPU time used (sec):      311.001
                            User time (sec):      309.619
                          System time (sec):        1.382
                         Elapsed time (sec):      312.193
  
                   Maximum memory used (kb):      124340.
                   Average memory used (kb):           0.
  
                          Minor page faults:        61171
                          Major page faults:            0
                 Voluntary context switches:          257
