unknown system                          
   1.00000000000000     
     0.000000    2.840052    0.000000
     0.000000    0.000000   -2.840052
    -5.680104    0.000000    0.000000
   Fe
     4
Direct
  0.000000  0.000000  0.500000
  0.500000  0.500000  0.750000
  0.000000  0.000000  0.000000
  0.500000  0.500000  0.250000
 
   48   48   84
 0.14968736273E+04 0.39414219448E+04 0.80101824366E+03 0.53454974116E+03 0.85099291861E+03
 0.88960877405E+03 0.73110211449E+03 0.53216136933E+03 0.36470486450E+03 0.24352794947E+03
 0.16178936983E+03 0.10845092467E+03 0.74084441133E+02 0.51965284487E+02 0.37609052765E+02
 0.28196694082E+02 0.21894992022E+02 0.17572019038E+02 0.14716874500E+02 0.12697841621E+02
 0.11279277470E+02 0.10320791592E+02 0.96904193170E+01 0.93432129332E+01 0.92248239752E+01
 0.93432129332E+01 0.96904193170E+01 0.10320791592E+02 0.11279277470E+02 0.12697841621E+02
 0.14716874500E+02 0.17572019038E+02 0.21894992022E+02 0.28196694082E+02 0.37609052765E+02
 0.51965284487E+02 0.74084441133E+02 0.10845092467E+03 0.16178936983E+03 0.24352794947E+03
 0.36470486450E+03 0.53216136933E+03 0.73110211449E+03 0.88960877405E+03 0.85099291861E+03
 0.53454974116E+03 0.80101824366E+03 0.39414219448E+04 0.39414219448E+04 0.22966162559E+04
 0.55891489092E+03 0.59163279013E+03 0.87237907589E+03 0.87959682653E+03 0.71463765770E+03
 0.51882961583E+03 0.35582912884E+03 0.23807127573E+03 0.15854588808E+03 0.10654581678E+03
 0.72960001145E+02 0.51296488809E+02 0.37204170201E+02 0.27948875416E+02 0.21739274048E+02
 0.17477476026E+02 0.14653701534E+02 0.12655488023E+02 0.11251836883E+02 0.10301718815E+02
 0.96772360703E+01 0.93324788047E+01 0.92154550809E+01 0.93324788047E+01 0.96772360703E+01
 0.10301718815E+02 0.11251836883E+02 0.12655488023E+02 0.14653701534E+02 0.17477476026E+02
 0.21739274048E+02 0.27948875416E+02 0.37204170201E+02 0.51296488809E+02 0.72960001145E+02
 0.10654581678E+03 0.15854588808E+03 0.23807127573E+03 0.35582912884E+03 0.51882961583E+03
 0.71463765770E+03 0.87959682653E+03 0.87237907589E+03 0.59163279013E+03 0.55891489092E+03
 0.22966162559E+04 0.80101824366E+03 0.55891489092E+03 0.48454858499E+03 0.74900385701E+03
 0.90565708136E+03 0.84163506177E+03 0.66583893832E+03 0.48076692187E+03 0.33066704335E+03
 0.22259539016E+03 0.14931550246E+03 0.10109232154E+03 0.69732970933E+02 0.49365748541E+02
 0.36032620083E+02 0.27227546687E+02 0.20882443167E+02 0.17199469687E+02 0.14469367981E+02
 0.12530760395E+02 0.11170929315E+02 0.10245000772E+02 0.96387331212E+01 0.93010107285E+01
 0.91885521797E+01 0.93010107285E+01 0.96387331212E+01 0.10245000772E+02 0.11170929315E+02
 0.12530760395E+02 0.14469367981E+02 0.17199469687E+02 0.20882443167E+02 0.27227546687E+02
 0.36032620083E+02 0.49365748541E+02 0.69732970933E+02 0.10109232154E+03 0.14931550246E+03
 0.22259539016E+03 0.33066704335E+03 0.48076692187E+03 0.66583893832E+03 0.84163506177E+03
 0.90565708136E+03 0.74900385701E+03 0.48454858499E+03 0.55891489092E+03 0.53454974116E+03
 0.59163279013E+03 0.74900385701E+03 0.88825000382E+03 0.88960942988E+03 0.76398616358E+03
 0.58868371954E+03 0.42363071165E+03 0.29327419144E+03 0.19951447048E+03 0.13544102865E+03
 0.92825669166E+02 0.64791643817E+02 0.46388327426E+02 0.34209958382E+02 0.26095723607E+02
 0.20259247535E+02 0.16755966646E+02 0.14175494712E+02 0.12332130722E+02 0.11042367048E+02
 0.10154798772E+02 0.95775729542E+01 0.92507840396E+01 0.91457644781E+01 0.92507840396E+01
 0.95775729542E+01 0.10154798772E+02 0.11042367048E+02 0.12332130722E+02 0.14175494712E+02
 0.16755966646E+02 0.20259247535E+02 0.26095723607E+02 0.34209958382E+02 0.46388327426E+02
 0.64791643817E+02 0.92825669166E+02 0.13544102865E+03 0.19951447048E+03 0.29327419144E+03
 0.42363071165E+03 0.58868371954E+03 0.76398616358E+03 0.88960942988E+03 0.88825000382E+03
 0.74900385701E+03 0.59163279013E+03 0.85099291861E+03 0.87237907589E+03 0.90565708136E+03
 0.88960942988E+03 0.79625688939E+03 0.64991912883E+03 0.49313923552E+03 0.35584808808E+03
 0.24916066063E+03 0.17208718890E+03 0.11875682920E+03 0.82747134621E+02 0.58694201452E+02
 0.42661708626E+02 0.31909002623E+02 0.24647351179E+02 0.19441908487E+02 0.16175954191E+02
 0.13790960547E+02 0.12072475084E+02 0.10873134418E+02 0.10036539248E+02 0.94974471441E+01
 0.91856831883E+01 0.90902335189E+01 0.91856831883E+01 0.94974471441E+01 0.10036539248E+02
 0.10873134418E+02 0.12072475084E+02 0.13790960547E+02 0.16175954191E+02 0.19441908487E+02
 0.24647351179E+02 0.31909002623E+02 0.42661708626E+02 0.58694201452E+02 0.82747134621E+02
 0.11875682920E+03 0.17208718890E+03 0.24916066063E+03 0.35584808808E+03 0.49313923552E+03
 0.64991912883E+03 0.79625688939E+03 0.88960942988E+03 0.90565708136E+03 0.87237907589E+03
 0.88960877405E+03 0.87959682653E+03 0.84163506177E+03 0.76398616358E+03 0.64991912883E+03
 0.51884111274E+03 0.39293787673E+03 0.28643169900E+03 0.20389942186E+03 0.14358280818E+03
 0.10113196480E+03 0.71918858000E+02 0.52030670897E+02 0.38524583465E+02 0.29320220727E+02
 0.22988282555E+02 0.18470971352E+02 0.15498389543E+02 0.13336180383E+02 0.11769616306E+02
 0.10672172405E+02 0.98995298880E+01 0.94021453251E+01 0.91113744664E+01 0.90241976730E+01
 0.91113744664E+01 0.94021453251E+01 0.98995298880E+01 0.10672172405E+02 0.11769616306E+02
 0.13336180383E+02 0.15498389543E+02 0.18470971352E+02 0.22988282555E+02 0.29320220727E+02
 0.38524583465E+02 0.52030670897E+02 0.71918858000E+02 0.10113196480E+03 0.14358280818E+03
 0.20389942186E+03 0.28643169900E+03 0.39293787673E+03 0.51884111274E+03 0.64991912883E+03
 0.76398616358E+03 0.84163506177E+03 0.87959682653E+03 0.73110211449E+03 0.71463765770E+03
 0.66583893832E+03 0.58868371954E+03 0.49313923552E+03 0.39293787673E+03 0.30035129246E+03
 0.22262425953E+03 0.16184133812E+03 0.11662754098E+03 0.84128346035E+02 0.61249727425E+02
 0.45335706357E+02 0.34288311277E+02 0.26626229629E+02 0.20857657734E+02 0.17396036597E+02
 0.14763974182E+02 0.12836105975E+02 0.11441530859E+02 0.10448632209E+02 0.97523691533E+01
 0.92962063908E+01 0.90342393957E+01 0.89513082528E+01 0.90342393957E+01 0.92962063908E+01
 0.97523691533E+01 0.10448632209E+02 0.11441530859E+02 0.12836105975E+02 0.14763974182E+02
 0.17396036597E+02 0.20857657734E+02 0.26626229629E+02 0.34288311277E+02 0.45335706357E+02
 0.61249727425E+02 0.84128346035E+02 0.11662754098E+03 0.16184133812E+03 0.22262425953E+03
 0.30035129246E+03 0.39293787673E+03 0.49313923552E+03 0.58868371954E+03 0.66583893832E+03
 0.71463765770E+03 0.53216136933E+03 0.51882961583E+03 0.48076692187E+03 0.42363071165E+03
 0.35584808808E+03 0.28643169900E+03 0.22262425953E+03 0.16859422363E+03 0.12559428407E+03
 0.92881569863E+02 0.68790624484E+02 0.51403937690E+02 0.39010541707E+02 0.30211234058E+02
 0.23969152619E+02 0.19315256228E+02 0.16281333280E+02 0.14006457885E+02 0.12318919446E+02
 0.11102156899E+02 0.10216862674E+02 0.96018589345E+01 0.91878545977E+01 0.89576023718E+01
 0.88778734271E+01 0.89576023718E+01 0.91878545977E+01 0.96018589345E+01 0.10216862674E+02
 0.11102156899E+02 0.12318919446E+02 0.14006457885E+02 0.16281333280E+02 0.19315256228E+02
 0.23969152619E+02 0.30211234058E+02 0.39010541707E+02 0.51403937690E+02 0.68790624484E+02
 0.92881569863E+02 0.12559428407E+03 0.16859422363E+03 0.22262425953E+03 0.28643169900E+03
 0.35584808808E+03 0.42363071165E+03 0.48076692187E+03 0.51882961583E+03 0.36470486450E+03
 0.35582912884E+03 0.33066704335E+03 0.29327419144E+03 0.24916066063E+03 0.20389942186E+03
 0.16184133812E+03 0.12559428407E+03 0.96077977681E+02 0.73067944378E+02 0.55654966493E+02
 0.42758045259E+02 0.33318638787E+02 0.26465714030E+02 0.21066794834E+02 0.17766969918E+02
 0.15190662905E+02 0.13252606931E+02 0.11814242118E+02 0.10760835436E+02 0.99917076667E+01
 0.94502576917E+01 0.90873928379E+01 0.88822010282E+01 0.88133398846E+01 0.88822010282E+01
 0.90873928379E+01 0.94502576917E+01 0.99917076667E+01 0.10760835436E+02 0.11814242118E+02
 0.13252606931E+02 0.15190662905E+02 0.17766969918E+02 0.21066794834E+02 0.26465714030E+02
 0.33318638787E+02 0.42758045259E+02 0.55654966493E+02 0.73067944378E+02 0.96077977681E+02
 0.12559428407E+03 0.16184133812E+03 0.20389942186E+03 0.24916066063E+03 0.29327419144E+03
 0.33066704335E+03 0.35582912884E+03 0.24352794947E+03 0.23807127573E+03 0.22259539016E+03
 0.19951447048E+03 0.17208718890E+03 0.14358280818E+03 0.11662754098E+03 0.92881569863E+02
 0.73067944378E+02 0.57189885915E+02 0.44844387019E+02 0.35452307230E+02 0.28392640894E+02
 0.23131788264E+02 0.19057183879E+02 0.16289275150E+02 0.14158352451E+02 0.12537298035E+02
 0.11334421703E+02 0.10434393701E+02 0.97799726950E+01 0.93083490167E+01 0.89979245939E+01
 0.88152029466E+01 0.87593545084E+01 0.88152029466E+01 0.89979245939E+01 0.93083490167E+01
 0.97799726950E+01 0.10434393701E+02 0.11334421703E+02 0.12537298035E+02 0.14158352451E+02
 0.16289275150E+02 0.19057183879E+02 0.23131788264E+02 0.28392640894E+02 0.35452307230E+02
 0.44844387019E+02 0.57189885915E+02 0.73067944378E+02 0.92881569863E+02 0.11662754098E+03
 0.14358280818E+03 0.17208718890E+03 0.19951447048E+03 0.22259539016E+03 0.23807127573E+03
 0.16178936983E+03 0.15854588808E+03 0.14931550246E+03 0.13544102865E+03 0.11875682920E+03
 0.10113196480E+03 0.84128346035E+02 0.68790624484E+02 0.55654966493E+02 0.44844387019E+02
 0.36212888444E+02 0.29449860215E+02 0.24250563238E+02 0.20007141740E+02 0.17186133113E+02
 0.14946151980E+02 0.13206623052E+02 0.11887264701E+02 0.10887359546E+02 0.10138707057E+02
 0.95824766671E+01 0.91860942172E+01 0.89181044000E+01 0.87656911860E+01 0.87144776822E+01
 0.87656911860E+01 0.89181044000E+01 0.91860942172E+01 0.95824766671E+01 0.10138707057E+02
 0.10887359546E+02 0.11887264701E+02 0.13206623052E+02 0.14946151980E+02 0.17186133113E+02
 0.20007141740E+02 0.24250563238E+02 0.29449860215E+02 0.36212888444E+02 0.44844387019E+02
 0.55654966493E+02 0.68790624484E+02 0.84128346035E+02 0.10113196480E+03 0.11875682920E+03
 0.13544102865E+03 0.14931550246E+03 0.15854588808E+03 0.10845092467E+03 0.10654581678E+03
 0.10109232154E+03 0.92825669166E+02 0.82747134621E+02 0.71918858000E+02 0.61249727425E+02
 0.51403937690E+02 0.42758045259E+02 0.35452307230E+02 0.29449860215E+02 0.24644640223E+02
 0.20511810825E+02 0.17773057411E+02 0.15530875938E+02 0.13750419630E+02 0.12367148475E+02
 0.11303706674E+02 0.10489666947E+02 0.98727851781E+01 0.94133841268E+01 0.90824127344E+01
 0.88591511538E+01 0.87304357591E+01 0.86882485085E+01 0.87304357591E+01 0.88591511538E+01
 0.90824127344E+01 0.94133841268E+01 0.98727851781E+01 0.10489666947E+02 0.11303706674E+02
 0.12367148475E+02 0.13750419630E+02 0.15530875938E+02 0.17773057411E+02 0.20511810825E+02
 0.24644640223E+02 0.29449860215E+02 0.35452307230E+02 0.42758045259E+02 0.51403937690E+02
 0.61249727425E+02 0.71918858000E+02 0.82747134621E+02 0.92825669166E+02 0.10109232154E+03
 0.10654581678E+03 0.74084441133E+02 0.72960001145E+02 0.69732970933E+02 0.64791643817E+02
 0.58694201452E+02 0.52030670897E+02 0.45335706357E+02 0.39010541707E+02 0.33318638787E+02
 0.28392640894E+02 0.24250563238E+02 0.20511810825E+02 0.17977139771E+02 0.15842945022E+02
 0.14105614068E+02 0.12722596558E+02 0.11639635221E+02 0.10795439331E+02 0.10143938264E+02
 0.96449571468E+01 0.92713535387E+01 0.90004634328E+01 0.88183408380E+01 0.87126400548E+01
 0.86786138475E+01 0.87126400548E+01 0.88183408380E+01 0.90004634328E+01 0.92713535387E+01
 0.96449571468E+01 0.10143938264E+02 0.10795439331E+02 0.11639635221E+02 0.12722596558E+02
 0.14105614068E+02 0.15842945022E+02 0.17977139771E+02 0.20511810825E+02 0.24250563238E+02
 0.28392640894E+02 0.33318638787E+02 0.39010541707E+02 0.45335706357E+02 0.52030670897E+02
 0.58694201452E+02 0.64791643817E+02 0.69732970933E+02 0.72960001145E+02 0.51965284487E+02
 0.51296488809E+02 0.49365748541E+02 0.46388327426E+02 0.42661708626E+02 0.38524583465E+02
 0.34288311277E+02 0.30211234058E+02 0.26465714030E+02 0.23131788264E+02 0.20007141740E+02
 0.17773057411E+02 0.15842945022E+02 0.14229129393E+02 0.12911939440E+02 0.11858180596E+02
 0.11021522110E+02 0.10363852192E+02 0.98495612819E+01 0.94552974563E+01 0.91590504880E+01
 0.89454169482E+01 0.88003170090E+01 0.87169568909E+01 0.86891881318E+01 0.87169568909E+01
 0.88003170090E+01 0.89454169482E+01 0.91590504880E+01 0.94552974563E+01 0.98495612819E+01
 0.10363852192E+02 0.11021522110E+02 0.11858180596E+02 0.12911939440E+02 0.14229129393E+02
 0.15842945022E+02 0.17773057411E+02 0.20007141740E+02 0.23131788264E+02 0.26465714030E+02
 0.30211234058E+02 0.34288311277E+02 0.38524583465E+02 0.42661708626E+02 0.46388327426E+02
 0.49365748541E+02 0.51296488809E+02 0.37609052765E+02 0.37204170201E+02 0.36032620083E+02
 0.34209958382E+02 0.31909002623E+02 0.29320220727E+02 0.26626229629E+02 0.23969152619E+02
 0.21066794834E+02 0.19057183879E+02 0.17186133113E+02 0.15530875938E+02 0.14105614068E+02
 0.12911939440E+02 0.11934042714E+02 0.11141639237E+02 0.10506959183E+02 0.10001947148E+02
 0.96087086410E+01 0.93061389859E+01 0.90783566122E+01 0.89120226387E+01 0.87999511901E+01
 0.87348077148E+01 0.87139324639E+01 0.87348077148E+01 0.87999511901E+01 0.89120226387E+01
 0.90783566122E+01 0.93061389859E+01 0.96087086410E+01 0.10001947148E+02 0.10506959183E+02
 0.11141639237E+02 0.11934042714E+02 0.12911939440E+02 0.14105614068E+02 0.15530875938E+02
 0.17186133113E+02 0.19057183879E+02 0.21066794834E+02 0.23969152619E+02 0.26626229629E+02
 0.29320220727E+02 0.31909002623E+02 0.34209958382E+02 0.36032620083E+02 0.37204170201E+02
 0.28196694082E+02 0.27948875416E+02 0.27227546687E+02 0.26095723607E+02 0.24647351179E+02
 0.22988282555E+02 0.20857657734E+02 0.19315256228E+02 0.17766969918E+02 0.16289275150E+02
 0.14946151980E+02 0.13750419630E+02 0.12722596558E+02 0.11858180596E+02 0.11141639237E+02
 0.10556604220E+02 0.10083284537E+02 0.97100337016E+01 0.94171462334E+01 0.91906021664E+01
 0.90202235793E+01 0.88988874808E+01 0.88178623798E+01 0.87720138688E+01 0.87568237069E+01
 0.87720138688E+01 0.88178623798E+01 0.88988874808E+01 0.90202235793E+01 0.91906021664E+01
 0.94171462334E+01 0.97100337016E+01 0.10083284537E+02 0.10556604220E+02 0.11141639237E+02
 0.11858180596E+02 0.12722596558E+02 0.13750419630E+02 0.14946151980E+02 0.16289275150E+02
 0.17766969918E+02 0.19315256228E+02 0.20857657734E+02 0.22988282555E+02 0.24647351179E+02
 0.26095723607E+02 0.27227546687E+02 0.27948875416E+02 0.21894992022E+02 0.21739274048E+02
 0.20882443167E+02 0.20259247535E+02 0.19441908487E+02 0.18470971352E+02 0.17396036597E+02
 0.16281333280E+02 0.15190662905E+02 0.14158352451E+02 0.13206623052E+02 0.12367148475E+02
 0.11639635221E+02 0.11021522110E+02 0.10506959183E+02 0.10083284537E+02 0.97453663403E+01
 0.94763664349E+01 0.92653675866E+01 0.91063774034E+01 0.89914868543E+01 0.89107300644E+01
 0.88575107872E+01 0.88269515131E+01 0.88171788352E+01 0.88269515131E+01 0.88575107872E+01
 0.89107300644E+01 0.89914868543E+01 0.91063774034E+01 0.92653675866E+01 0.94763664349E+01
 0.97453663403E+01 0.10083284537E+02 0.10506959183E+02 0.11021522110E+02 0.11639635221E+02
 0.12367148475E+02 0.13206623052E+02 0.14158352451E+02 0.15190662905E+02 0.16281333280E+02
 0.17396036597E+02 0.18470971352E+02 0.19441908487E+02 0.20259247535E+02 0.20882443167E+02
 0.21739274048E+02 0.17572019038E+02 0.17477476026E+02 0.17199469687E+02 0.16755966646E+02
 0.16175954191E+02 0.15498389543E+02 0.14763974182E+02 0.14006457885E+02 0.13252606931E+02
 0.12537298035E+02 0.11887264701E+02 0.11303706674E+02 0.10795439331E+02 0.10363852192E+02
 0.10001947148E+02 0.97100337016E+01 0.94763664349E+01 0.92916832888E+01 0.91542187467E+01
 0.90555101390E+01 0.89852321613E+01 0.89363943084E+01 0.89045332318E+01 0.88867611976E+01
 0.88810267424E+01 0.88867611976E+01 0.89045332318E+01 0.89363943084E+01 0.89852321613E+01
 0.90555101390E+01 0.91542187467E+01 0.92916832888E+01 0.94763664349E+01 0.97100337016E+01
 0.10001947148E+02 0.10363852192E+02 0.10795439331E+02 0.11303706674E+02 0.11887264701E+02
 0.12537298035E+02 0.13252606931E+02 0.14006457885E+02 0.14763974182E+02 0.15498389543E+02
 0.16175954191E+02 0.16755966646E+02 0.17199469687E+02 0.17477476026E+02 0.14716874500E+02
 0.14653701534E+02 0.14469367981E+02 0.14175494712E+02 0.13790960547E+02 0.13336180383E+02
 0.12836105975E+02 0.12318919446E+02 0.11814242118E+02 0.11334421703E+02 0.10887359546E+02
 0.10489666947E+02 0.10143938264E+02 0.98495612819E+01 0.96087086410E+01 0.94171462334E+01
 0.92653675866E+01 0.91542187467E+01 0.90780490129E+01 0.90258425593E+01 0.89908274743E+01
 0.89684338536E+01 0.89558468955E+01 0.89495850148E+01 0.89479222486E+01 0.89495850148E+01
 0.89558468955E+01 0.89684338536E+01 0.89908274743E+01 0.90258425593E+01 0.90780490129E+01
 0.91542187467E+01 0.92653675866E+01 0.94171462334E+01 0.96087086410E+01 0.98495612819E+01
 0.10143938264E+02 0.10489666947E+02 0.10887359546E+02 0.11334421703E+02 0.11814242118E+02
 0.12318919446E+02 0.12836105975E+02 0.13336180383E+02 0.13790960547E+02 0.14175494712E+02
 0.14469367981E+02 0.14653701534E+02 0.12697841621E+02 0.12655488023E+02 0.12530760395E+02
 0.12332130722E+02 0.12072475084E+02 0.11769616306E+02 0.11441530859E+02 0.11102156899E+02
 0.10760835436E+02 0.10434393701E+02 0.10138707057E+02 0.98727851781E+01 0.96449571468E+01
 0.94552974563E+01 0.93061389859E+01 0.91906021664E+01 0.91063774034E+01 0.90555101390E+01
 0.90258425593E+01 0.90103224574E+01 0.90040678469E+01 0.90057775008E+01 0.90103965370E+01
 0.90154223235E+01 0.90169855028E+01 0.90154223235E+01 0.90103965370E+01 0.90057775008E+01
 0.90040678469E+01 0.90103224574E+01 0.90258425593E+01 0.90555101390E+01 0.91063774034E+01
 0.91906021664E+01 0.93061389859E+01 0.94552974563E+01 0.96449571468E+01 0.98727851781E+01
 0.10138707057E+02 0.10434393701E+02 0.10760835436E+02 0.11102156899E+02 0.11441530859E+02
 0.11769616306E+02 0.12072475084E+02 0.12332130722E+02 0.12530760395E+02 0.12655488023E+02
 0.11279277470E+02 0.11251836883E+02 0.11170929315E+02 0.11042367048E+02 0.10873134418E+02
 0.10672172405E+02 0.10448632209E+02 0.10216862674E+02 0.99917076667E+01 0.97799726950E+01
 0.95824766671E+01 0.94133841268E+01 0.92713535387E+01 0.91590504880E+01 0.90783566122E+01
 0.90202235793E+01 0.89914868543E+01 0.89852321613E+01 0.89908274743E+01 0.90040678469E+01
 0.90240061011E+01 0.90463845153E+01 0.90667541527E+01 0.90805087436E+01 0.90855188426E+01
 0.90805087436E+01 0.90667541527E+01 0.90463845153E+01 0.90240061011E+01 0.90040678469E+01
 0.89908274743E+01 0.89852321613E+01 0.89914868543E+01 0.90202235793E+01 0.90783566122E+01
 0.91590504880E+01 0.92713535387E+01 0.94133841268E+01 0.95824766671E+01 0.97799726950E+01
 0.99917076667E+01 0.10216862674E+02 0.10448632209E+02 0.10672172405E+02 0.10873134418E+02
 0.11042367048E+02 0.11170929315E+02 0.11251836883E+02 0.10320791592E+02 0.10301718815E+02
 0.10245000772E+02 0.10154798772E+02 0.10036539248E+02 0.98995298880E+01 0.97523691533E+01
 0.96018589345E+01 0.94502576917E+01 0.93083490167E+01 0.91860942172E+01 0.90824127344E+01
 0.90004634328E+01 0.89454169482E+01 0.89120226386E+01 0.88988874808E+01 0.89107300644E+01
 0.89363943084E+01 0.89684338536E+01 0.90057775008E+01 0.90463845153E+01 0.90854186041E+01
 0.91173806532E+01 0.91381793277E+01 0.91453405892E+01 0.91381793277E+01 0.91173806532E+01
 0.90854186041E+01 0.90463845153E+01 0.90057775008E+01 0.89684338536E+01 0.89363943084E+01
 0.89107300644E+01 0.88988874808E+01 0.89120226386E+01 0.89454169482E+01 0.90004634328E+01
 0.90824127344E+01 0.91860942172E+01 0.93083490167E+01 0.94502576917E+01 0.96018589345E+01
 0.97523691533E+01 0.98995298880E+01 0.10036539248E+02 0.10154798772E+02 0.10245000772E+02
 0.10301718815E+02 0.96904193170E+01 0.96772360703E+01 0.96387331212E+01 0.95775729542E+01
 0.94974471441E+01 0.94021453251E+01 0.92962063908E+01 0.91878545977E+01 0.90873928379E+01
 0.89979245939E+01 0.89181044000E+01 0.88591511538E+01 0.88183408380E+01 0.88003170090E+01
 0.87999511901E+01 0.88178623798E+01 0.88575107872E+01 0.89045332318E+01 0.89558468955E+01
 0.90103965370E+01 0.90667541527E+01 0.91173806532E+01 0.91578897178E+01 0.91830643929E+01
 0.91921035300E+01 0.91830643929E+01 0.91578897178E+01 0.91173806532E+01 0.90667541527E+01
 0.90103965370E+01 0.89558468955E+01 0.89045332318E+01 0.88575107872E+01 0.88178623798E+01
 0.87999511901E+01 0.88003170090E+01 0.88183408380E+01 0.88591511538E+01 0.89181044000E+01
 0.89979245939E+01 0.90873928379E+01 0.91878545977E+01 0.92962063908E+01 0.94021453251E+01
 0.94974471441E+01 0.95775729542E+01 0.96387331212E+01 0.96772360703E+01 0.93432129332E+01
 0.93324788047E+01 0.93010107285E+01 0.92507840396E+01 0.91856831883E+01 0.91113744664E+01
 0.90342393957E+01 0.89576023718E+01 0.88822010282E+01 0.88152029466E+01 0.87656911860E+01
 0.87304357591E+01 0.87126400548E+01 0.87169568909E+01 0.87348077148E+01 0.87720138688E+01
 0.88269515131E+01 0.88867611976E+01 0.89495850148E+01 0.90154223235E+01 0.90805087436E+01
 0.91381793277E+01 0.91830643929E+01 0.92112213151E+01 0.92208877686E+01 0.92112213151E+01
 0.91830643929E+01 0.91381793277E+01 0.90805087436E+01 0.90154223235E+01 0.89495850148E+01
 0.88867611976E+01 0.88269515131E+01 0.87720138688E+01 0.87348077148E+01 0.87169568909E+01
 0.87126400548E+01 0.87304357591E+01 0.87656911860E+01 0.88152029466E+01 0.88822010282E+01
 0.89576023718E+01 0.90342393957E+01 0.91113744664E+01 0.91856831883E+01 0.92507840396E+01
 0.93010107285E+01 0.93324788047E+01 0.92248239752E+01 0.92154550809E+01 0.91885521797E+01
 0.91457644781E+01 0.90902335189E+01 0.90241976730E+01 0.89513082528E+01 0.88778734271E+01
 0.88133398846E+01 0.87593545084E+01 0.87144776822E+01 0.86882485085E+01 0.86786138475E+01
 0.86891881318E+01 0.87139324639E+01 0.87568237069E+01 0.88171788352E+01 0.88810267424E+01
 0.89479222486E+01 0.90169855028E+01 0.90855188426E+01 0.91453405892E+01 0.91921035300E+01
 0.92208877686E+01 0.92311056881E+01 0.92208877686E+01 0.91921035300E+01 0.91453405892E+01
 0.90855188426E+01 0.90169855028E+01 0.89479222486E+01 0.88810267424E+01 0.88171788352E+01
 0.87568237069E+01 0.87139324639E+01 0.86891881318E+01 0.86786138475E+01 0.86882485085E+01
 0.87144776822E+01 0.87593545084E+01 0.88133398846E+01 0.88778734271E+01 0.89513082528E+01
 0.90241976730E+01 0.90902335189E+01 0.91457644781E+01 0.91885521797E+01 0.92154550809E+01
 0.93432129332E+01 0.93324788047E+01 0.93010107285E+01 0.92507840396E+01 0.91856831883E+01
 0.91113744664E+01 0.90342393957E+01 0.89576023718E+01 0.88822010282E+01 0.88152029466E+01
 0.87656911860E+01 0.87304357591E+01 0.87126400548E+01 0.87169568909E+01 0.87348077148E+01
 0.87720138688E+01 0.88269515131E+01 0.88867611976E+01 0.89495850148E+01 0.90154223235E+01
 0.90805087436E+01 0.91381793277E+01 0.91830643929E+01 0.92112213151E+01 0.92208877686E+01
 0.92112213151E+01 0.91830643929E+01 0.91381793277E+01 0.90805087436E+01 0.90154223235E+01
 0.89495850148E+01 0.88867611976E+01 0.88269515131E+01 0.87720138688E+01 0.87348077148E+01
 0.87169568909E+01 0.87126400548E+01 0.87304357591E+01 0.87656911860E+01 0.88152029466E+01
 0.88822010282E+01 0.89576023718E+01 0.90342393957E+01 0.91113744664E+01 0.91856831883E+01
 0.92507840396E+01 0.93010107285E+01 0.93324788047E+01 0.96904193170E+01 0.96772360703E+01
 0.96387331212E+01 0.95775729542E+01 0.94974471441E+01 0.94021453251E+01 0.92962063908E+01
 0.91878545977E+01 0.90873928379E+01 0.89979245939E+01 0.89181044000E+01 0.88591511538E+01
 0.88183408380E+01 0.88003170090E+01 0.87999511901E+01 0.88178623798E+01 0.88575107872E+01
 0.89045332318E+01 0.89558468955E+01 0.90103965370E+01 0.90667541527E+01 0.91173806532E+01
 0.91578897178E+01 0.91830643929E+01 0.91921035300E+01 0.91830643929E+01 0.91578897178E+01
 0.91173806532E+01 0.90667541527E+01 0.90103965370E+01 0.89558468955E+01 0.89045332318E+01
 0.88575107872E+01 0.88178623798E+01 0.87999511901E+01 0.88003170090E+01 0.88183408380E+01
 0.88591511538E+01 0.89181044000E+01 0.89979245939E+01 0.90873928379E+01 0.91878545977E+01
 0.92962063908E+01 0.94021453251E+01 0.94974471441E+01 0.95775729542E+01 0.96387331212E+01
 0.96772360703E+01 0.10320791592E+02 0.10301718815E+02 0.10245000772E+02 0.10154798772E+02
 0.10036539248E+02 0.98995298880E+01 0.97523691533E+01 0.96018589345E+01 0.94502576917E+01
 0.93083490167E+01 0.91860942172E+01 0.90824127344E+01 0.90004634328E+01 0.89454169482E+01
 0.89120226386E+01 0.88988874808E+01 0.89107300644E+01 0.89363943084E+01 0.89684338536E+01
 0.90057775008E+01 0.90463845153E+01 0.90854186041E+01 0.91173806532E+01 0.91381793277E+01
 0.91453405892E+01 0.91381793277E+01 0.91173806532E+01 0.90854186041E+01 0.90463845153E+01
 0.90057775008E+01 0.89684338536E+01 0.89363943084E+01 0.89107300644E+01 0.88988874808E+01
 0.89120226386E+01 0.89454169482E+01 0.90004634328E+01 0.90824127344E+01 0.91860942172E+01
 0.93083490167E+01 0.94502576917E+01 0.96018589345E+01 0.97523691533E+01 0.98995298880E+01
 0.10036539248E+02 0.10154798772E+02 0.10245000772E+02 0.10301718815E+02 0.11279277470E+02
 0.11251836883E+02 0.11170929315E+02 0.11042367048E+02 0.10873134418E+02 0.10672172405E+02
 0.10448632209E+02 0.10216862674E+02 0.99917076667E+01 0.97799726950E+01 0.95824766671E+01
 0.94133841268E+01 0.92713535387E+01 0.91590504880E+01 0.90783566122E+01 0.90202235793E+01
 0.89914868543E+01 0.89852321613E+01 0.89908274743E+01 0.90040678469E+01 0.90240061011E+01
 0.90463845153E+01 0.90667541527E+01 0.90805087436E+01 0.90855188426E+01 0.90805087436E+01
 0.90667541527E+01 0.90463845153E+01 0.90240061011E+01 0.90040678469E+01 0.89908274743E+01
 0.89852321613E+01 0.89914868543E+01 0.90202235793E+01 0.90783566122E+01 0.91590504880E+01
 0.92713535387E+01 0.94133841268E+01 0.95824766671E+01 0.97799726950E+01 0.99917076667E+01
 0.10216862674E+02 0.10448632209E+02 0.10672172405E+02 0.10873134418E+02 0.11042367048E+02
 0.11170929315E+02 0.11251836883E+02 0.12697841621E+02 0.12655488023E+02 0.12530760395E+02
 0.12332130722E+02 0.12072475084E+02 0.11769616306E+02 0.11441530859E+02 0.11102156899E+02
 0.10760835436E+02 0.10434393701E+02 0.10138707057E+02 0.98727851781E+01 0.96449571468E+01
 0.94552974563E+01 0.93061389859E+01 0.91906021664E+01 0.91063774034E+01 0.90555101390E+01
 0.90258425593E+01 0.90103224574E+01 0.90040678469E+01 0.90057775008E+01 0.90103965370E+01
 0.90154223235E+01 0.90169855028E+01 0.90154223235E+01 0.90103965370E+01 0.90057775008E+01
 0.90040678469E+01 0.90103224574E+01 0.90258425593E+01 0.90555101390E+01 0.91063774034E+01
 0.91906021664E+01 0.93061389859E+01 0.94552974563E+01 0.96449571468E+01 0.98727851781E+01
 0.10138707057E+02 0.10434393701E+02 0.10760835436E+02 0.11102156899E+02 0.11441530859E+02
 0.11769616306E+02 0.12072475084E+02 0.12332130722E+02 0.12530760395E+02 0.12655488023E+02
 0.14716874500E+02 0.14653701534E+02 0.14469367981E+02 0.14175494712E+02 0.13790960547E+02
 0.13336180383E+02 0.12836105975E+02 0.12318919446E+02 0.11814242118E+02 0.11334421703E+02
 0.10887359546E+02 0.10489666947E+02 0.10143938264E+02 0.98495612819E+01 0.96087086410E+01
 0.94171462334E+01 0.92653675866E+01 0.91542187467E+01 0.90780490129E+01 0.90258425593E+01
 0.89908274743E+01 0.89684338536E+01 0.89558468955E+01 0.89495850148E+01 0.89479222486E+01
 0.89495850148E+01 0.89558468955E+01 0.89684338536E+01 0.89908274743E+01 0.90258425593E+01
 0.90780490129E+01 0.91542187467E+01 0.92653675866E+01 0.94171462334E+01 0.96087086410E+01
 0.98495612819E+01 0.10143938264E+02 0.10489666947E+02 0.10887359546E+02 0.11334421703E+02
 0.11814242118E+02 0.12318919446E+02 0.12836105975E+02 0.13336180383E+02 0.13790960547E+02
 0.14175494712E+02 0.14469367981E+02 0.14653701534E+02 0.17572019038E+02 0.17477476026E+02
 0.17199469687E+02 0.16755966646E+02 0.16175954191E+02 0.15498389543E+02 0.14763974182E+02
 0.14006457885E+02 0.13252606931E+02 0.12537298035E+02 0.11887264701E+02 0.11303706674E+02
 0.10795439331E+02 0.10363852192E+02 0.10001947148E+02 0.97100337016E+01 0.94763664349E+01
 0.92916832888E+01 0.91542187467E+01 0.90555101390E+01 0.89852321613E+01 0.89363943084E+01
 0.89045332318E+01 0.88867611976E+01 0.88810267424E+01 0.88867611976E+01 0.89045332318E+01
 0.89363943084E+01 0.89852321613E+01 0.90555101390E+01 0.91542187467E+01 0.92916832888E+01
 0.94763664349E+01 0.97100337016E+01 0.10001947148E+02 0.10363852192E+02 0.10795439331E+02
 0.11303706674E+02 0.11887264701E+02 0.12537298035E+02 0.13252606931E+02 0.14006457885E+02
 0.14763974182E+02 0.15498389543E+02 0.16175954191E+02 0.16755966646E+02 0.17199469687E+02
 0.17477476026E+02 0.21894992022E+02 0.21739274048E+02 0.20882443167E+02 0.20259247535E+02
 0.19441908487E+02 0.18470971352E+02 0.17396036597E+02 0.16281333280E+02 0.15190662905E+02
 0.14158352451E+02 0.13206623052E+02 0.12367148475E+02 0.11639635221E+02 0.11021522110E+02
 0.10506959183E+02 0.10083284537E+02 0.97453663403E+01 0.94763664349E+01 0.92653675866E+01
 0.91063774034E+01 0.89914868543E+01 0.89107300644E+01 0.88575107872E+01 0.88269515131E+01
 0.88171788352E+01 0.88269515131E+01 0.88575107872E+01 0.89107300644E+01 0.89914868543E+01
 0.91063774034E+01 0.92653675866E+01 0.94763664349E+01 0.97453663403E+01 0.10083284537E+02
 0.10506959183E+02 0.11021522110E+02 0.11639635221E+02 0.12367148475E+02 0.13206623052E+02
 0.14158352451E+02 0.15190662905E+02 0.16281333280E+02 0.17396036597E+02 0.18470971352E+02
 0.19441908487E+02 0.20259247535E+02 0.20882443167E+02 0.21739274048E+02 0.28196694082E+02
 0.27948875416E+02 0.27227546687E+02 0.26095723607E+02 0.24647351179E+02 0.22988282555E+02
 0.20857657734E+02 0.19315256228E+02 0.17766969918E+02 0.16289275150E+02 0.14946151980E+02
 0.13750419630E+02 0.12722596558E+02 0.11858180596E+02 0.11141639237E+02 0.10556604220E+02
 0.10083284537E+02 0.97100337016E+01 0.94171462334E+01 0.91906021664E+01 0.90202235793E+01
 0.88988874808E+01 0.88178623798E+01 0.87720138688E+01 0.87568237069E+01 0.87720138688E+01
 0.88178623798E+01 0.88988874808E+01 0.90202235793E+01 0.91906021664E+01 0.94171462334E+01
 0.97100337016E+01 0.10083284537E+02 0.10556604220E+02 0.11141639237E+02 0.11858180596E+02
 0.12722596558E+02 0.13750419630E+02 0.14946151980E+02 0.16289275150E+02 0.17766969918E+02