 vasp.5.4.4.18Apr17-6-g9f103f2a35 (build Apr 28 2018 00:24:27) complex          
  
 executed on             LinuxIFC date 2021.09.07  01:13:02
 running on   24 total cores
 distrk:  each k-point on   24 cores,    1 groups
 distr:  one band on NCORES_PER_BAND=   4 cores,    6 groups


--------------------------------------------------------------------------------------------------------


 INCAR:
 POTCAR:    PAW_PBE Fe_pv 02Aug2007               
 POTCAR:    PAW_PBE Fe_pv 02Aug2007               
   VRHFIN =Fe:  3pd7s1                                                          
   LEXCH  = PE                                                                  
   EATOM  =  2457.4239 eV,  180.6156 Ry                                         
                                                                                
   TITEL  = PAW_PBE Fe_pv 02Aug2007                                             
   LULTRA =        F    use ultrasoft PP ?                                      
   IUNSCR =        1    unscreen: 0-lin 1-nonlin 2-no                           
   RPACOR =    1.750    partial core radius                                     
   POMASS =   55.847; ZVAL   =   14.000    mass and valenz                      
   RCORE  =    2.200    outmost cutoff radius                                   
   RWIGS  =    2.200; RWIGS  =    1.164    wigner-seitz radius (au A)           
   ENMAX  =  293.238; ENMIN  =  219.928 eV                                      
   ICORE  =        3    local potential                                         
   LCOR   =        T    correct aug charges                                     
   LPAW   =        T    paw PP                                                  
   EAUG   =  578.342                                                            
   DEXC   =    0.000                                                            
   RMAX   =    2.249    core radius for proj-oper                               
   RAUG   =    1.300    factor for augmentation sphere                          
   RDEP   =    2.296    radius for radial grids                                 
   RDEPT  =    1.766    core radius for aug-charge                              
                                                                                
   Atomic configuration                                                         
    8 entries                                                                   
     n  l   j            E        occ.                                          
     1  0  0.50     -6993.8440   2.0000                                         
     2  0  0.50      -814.6047   2.0000                                         
     2  1  1.50      -693.3689   6.0000                                         
     3  0  0.50       -89.4732   2.0000                                         
     3  1  1.50       -55.6373   6.0000                                         
     3  2  2.50        -3.8151   7.0000                                         
     4  0  0.50        -4.2551   1.0000                                         
     4  3  2.50        -1.3606   0.0000                                         
   Description                                                                  
     l       E           TYP  RCUT    TYP  RCUT                                 
     1    -55.6372668     23  2.000                                             
     1     -5.4423304     23  2.000                                             
     2     -3.8151096     23  2.200                                             
     2     -5.1756922     23  2.200                                             
     0     -4.2550951     23  2.200                                             
     0     27.2116520     23  2.200                                             
     3     -1.3605826     23  2.200                                             
  local pseudopotential read in
  partial core-charges read in
  partial kinetic energy density read in
  atomic valenz-charges read in
  non local Contribution for L=           1  read in
    real space projection operators read in
  non local Contribution for L=           1  read in
    real space projection operators read in
  non local Contribution for L=           2  read in
    real space projection operators read in
  non local Contribution for L=           2  read in
    real space projection operators read in
  non local Contribution for L=           0  read in
    real space projection operators read in
  non local Contribution for L=           0  read in
    real space projection operators read in
    PAW grid and wavefunctions read in
 
   number of l-projection  operators is LMAX  =           6
   number of lm-projection operators is LMMAX =          18
 

 ----------------------------------------------------------------------------- 
|                                                                             |
|  ADVICE TO THIS USER RUNNING 'VASP/VAMP'   (HEAR YOUR MASTER'S VOICE ...):  |
|                                                                             |
|      You have a (more or less) 'small supercell' and for smaller cells      |
|      it is recommended  to use the reciprocal-space projection scheme!      |
|      The real space optimization is not  efficient for small cells and it   |
|      is also less accurate ...                                              |
|      Therefore set LREAL=.FALSE. in the  INCAR file                         |
|                                                                             |
 ----------------------------------------------------------------------------- 

 Optimization of the real space projectors (new method)

 maximal supplied QI-value         = 17.01
 optimisation between [QCUT,QGAM] = [ 15.48, 30.95] = [ 67.08,268.30] Ry 
 Optimized for a Real-space Cutoff    1.26 Angstroem

   l    n(q)    QCUT    max X(q) W(low)/X(q) W(high)/X(q)  e(spline) 
   1     11    15.477     4.267    0.90E-04    0.14E-03    0.59E-06
   1     11    15.477     5.750    0.14E-03    0.21E-03    0.81E-06
   2     11    15.477    53.656    0.97E-04    0.12E-03    0.26E-06
   2     11    15.477    49.521    0.10E-03    0.12E-03    0.27E-06
   0     12    15.477    31.246    0.35E-04    0.34E-04    0.27E-06
   0     12    15.477    12.201    0.29E-04    0.28E-04    0.22E-06
  PAW_PBE Fe_pv 02Aug2007               :
 energy of atom  1       EATOM=-2457.4239
 kinetic energy error for atom=    0.0010 (will be added to EATOM!!)
 
 
 POSCAR: Fe2                                     
  positions in direct lattice
  No initial velocities read in
 exchange correlation table for  LEXCH =        8
   RHO(1)=    0.500       N(1)  =     2000
   RHO(2)=  100.500       N(2)  =     4000
 


--------------------------------------------------------------------------------------------------------


 ion  position               nearest neighbor table
   1  0.000  0.000  0.000-   2 2.46   2 2.46   2 2.46   2 2.46   2 2.46   2 2.46   2 2.46   2 2.46

   2  0.500  0.500  0.500-   1 2.46   1 2.46   1 2.46   1 2.46   1 2.46   1 2.46   1 2.46   1 2.46

 
  LATTYP: Found a simple cubic cell.
 ALAT       =     2.8400520000
  
  Lattice vectors:
  
 A1 = (   2.8400520000,   0.0000000000,   0.0000000000)
 A2 = (   0.0000000000,   2.8400520000,   0.0000000000)
 A3 = (   0.0000000000,   0.0000000000,   2.8400520000)


Analysis of symmetry for initial positions (statically):
=====================================================================
 Subroutine PRICEL returns following result:
 
  LATTYP: Found a body centered cubic cell.
 ALAT       =     2.8400520000
  
  Lattice vectors:
  
 A1 = (   1.4200260000,   1.4200260000,   1.4200260000)
 A2 = (   1.4200260000,  -1.4200260000,  -1.4200260000)
 A3 = (  -1.4200260000,   1.4200260000,  -1.4200260000)
 
   2 primitive cells build up your supercell.
 

 Routine SETGRP: Setting up the symmetry group for a 
 simple cubic supercell.


 Subroutine GETGRP returns: Found 48 space group operations
 (whereof 48 operations were pure point group operations)
 out of a pool of 48 trial point group operations.


The static configuration has the point symmetry O_h .


Analysis of symmetry for dynamics (positions and initial velocities):
=====================================================================
 Subroutine PRICEL returns following result:
 
  LATTYP: Found a body centered cubic cell.
 ALAT       =     2.8400520000
  
  Lattice vectors:
  
 A1 = (   1.4200260000,   1.4200260000,   1.4200260000)
 A2 = (   1.4200260000,  -1.4200260000,  -1.4200260000)
 A3 = (  -1.4200260000,   1.4200260000,  -1.4200260000)
 
   2 primitive cells build up your supercell.
 

 Routine SETGRP: Setting up the symmetry group for a 
 simple cubic supercell.


 Subroutine GETGRP returns: Found 48 space group operations
 (whereof 48 operations were pure point group operations)
 out of a pool of 48 trial point group operations.


The dynamic configuration has the point symmetry O_h .


Analysis of structural, dynamic, and magnetic symmetry:
=====================================================================
 Subroutine PRICEL returns following result:
 
  LATTYP: Found a body centered cubic cell.
 ALAT       =     2.8400520000
  
  Lattice vectors:
  
 A1 = (   1.4200260000,   1.4200260000,   1.4200260000)
 A2 = (   1.4200260000,  -1.4200260000,  -1.4200260000)
 A3 = (  -1.4200260000,   1.4200260000,  -1.4200260000)
 
   2 primitive cells build up your supercell.
 

 Routine SETGRP: Setting up the symmetry group for a 
 simple cubic supercell.


 Subroutine GETGRP returns: Found 48 space group operations
 (whereof 48 operations were pure point group operations)
 out of a pool of 48 trial point group operations.


The magnetic configuration has the point symmetry O_h .


 Subroutine INISYM returns: Found 48 space group operations
 (whereof 48 operations are pure point group operations),
 and found     2 'primitive' translations

 
 
 KPOINTS: Automatic mesh                          

Automatic generation of k-mesh.
 generate k-points for:   11   11   11
Space group operators:
 irot       det(A)        alpha          n_x          n_y          n_z        tau_x        tau_y        tau_z
    1     1.000000     0.000000     1.000000     0.000000     0.000000     0.000000     0.000000     0.000000
    2    -1.000000     0.000000     1.000000     0.000000     0.000000     0.000000     0.000000     0.000000
    3     1.000000   120.000000    -0.577350    -0.577350    -0.577350     0.000000     0.000000     0.000000
    4    -1.000000   120.000000    -0.577350    -0.577350    -0.577350     0.000000     0.000000     0.000000
    5     1.000000   120.000000     0.577350     0.577350     0.577350     0.000000     0.000000     0.000000
    6    -1.000000   120.000000     0.577350     0.577350     0.577350     0.000000     0.000000     0.000000
    7     1.000000    90.000000     0.000000     0.000000    -1.000000     0.000000     0.000000     0.000000
    8    -1.000000    90.000000     0.000000     0.000000    -1.000000     0.000000     0.000000     0.000000
    9     1.000000   180.000000     0.000000     0.707107     0.707107     0.000000     0.000000     0.000000
   10    -1.000000   180.000000     0.000000     0.707107     0.707107     0.000000     0.000000     0.000000
   11     1.000000    90.000000     0.000000     1.000000     0.000000     0.000000     0.000000     0.000000
   12    -1.000000    90.000000     0.000000     1.000000     0.000000     0.000000     0.000000     0.000000
   13     1.000000   180.000000     0.000000     0.000000     1.000000     0.000000     0.000000     0.000000
   14    -1.000000   180.000000     0.000000     0.000000     1.000000     0.000000     0.000000     0.000000
   15     1.000000   120.000000    -0.577350     0.577350     0.577350     0.000000     0.000000     0.000000
   16    -1.000000   120.000000    -0.577350     0.577350     0.577350     0.000000     0.000000     0.000000
   17     1.000000   120.000000    -0.577350     0.577350    -0.577350     0.000000     0.000000     0.000000
   18    -1.000000   120.000000    -0.577350     0.577350    -0.577350     0.000000     0.000000     0.000000
   19     1.000000    90.000000     0.000000     0.000000     1.000000     0.000000     0.000000     0.000000
   20    -1.000000    90.000000     0.000000     0.000000     1.000000     0.000000     0.000000     0.000000
   21     1.000000    90.000000    -1.000000     0.000000     0.000000     0.000000     0.000000     0.000000
   22    -1.000000    90.000000    -1.000000     0.000000     0.000000     0.000000     0.000000     0.000000
   23     1.000000   180.000000     0.707107     0.000000     0.707107     0.000000     0.000000     0.000000
   24    -1.000000   180.000000     0.707107     0.000000     0.707107     0.000000     0.000000     0.000000
   25     1.000000   120.000000     0.577350    -0.577350     0.577350     0.000000     0.000000     0.000000
   26    -1.000000   120.000000     0.577350    -0.577350     0.577350     0.000000     0.000000     0.000000
   27     1.000000   120.000000    -0.577350    -0.577350     0.577350     0.000000     0.000000     0.000000
   28    -1.000000   120.000000    -0.577350    -0.577350     0.577350     0.000000     0.000000     0.000000
   29     1.000000   180.000000     1.000000     0.000000     0.000000     0.000000     0.000000     0.000000
   30    -1.000000   180.000000     1.000000     0.000000     0.000000     0.000000     0.000000     0.000000
   31     1.000000    90.000000     0.000000    -1.000000     0.000000     0.000000     0.000000     0.000000
   32    -1.000000    90.000000     0.000000    -1.000000     0.000000     0.000000     0.000000     0.000000
   33     1.000000   180.000000     0.707107     0.707107     0.000000     0.000000     0.000000     0.000000
   34    -1.000000   180.000000     0.707107     0.707107     0.000000     0.000000     0.000000     0.000000
   35     1.000000    90.000000     1.000000     0.000000     0.000000     0.000000     0.000000     0.000000
   36    -1.000000    90.000000     1.000000     0.000000     0.000000     0.000000     0.000000     0.000000
   37     1.000000   120.000000     0.577350    -0.577350    -0.577350     0.000000     0.000000     0.000000
   38    -1.000000   120.000000     0.577350    -0.577350    -0.577350     0.000000     0.000000     0.000000
   39     1.000000   180.000000     0.000000     1.000000     0.000000     0.000000     0.000000     0.000000
   40    -1.000000   180.000000     0.000000     1.000000     0.000000     0.000000     0.000000     0.000000
   41     1.000000   120.000000     0.577350     0.577350    -0.577350     0.000000     0.000000     0.000000
   42    -1.000000   120.000000     0.577350     0.577350    -0.577350     0.000000     0.000000     0.000000
   43     1.000000   180.000000     0.000000    -0.707107     0.707107     0.000000     0.000000     0.000000
   44    -1.000000   180.000000     0.000000    -0.707107     0.707107     0.000000     0.000000     0.000000
   45     1.000000   180.000000     0.707107    -0.707107     0.000000     0.000000     0.000000     0.000000
   46    -1.000000   180.000000     0.707107    -0.707107     0.000000     0.000000     0.000000     0.000000
   47     1.000000   180.000000     0.707107     0.000000    -0.707107     0.000000     0.000000     0.000000
   48    -1.000000   180.000000     0.707107     0.000000    -0.707107     0.000000     0.000000     0.000000
 
 Subroutine IBZKPT returns following result:
 ===========================================
 
 Found     56 irreducible k-points:
 
 Following reciprocal coordinates:
            Coordinates               Weight
  0.000000  0.000000  0.000000      1.000000
  0.090909  0.000000  0.000000      6.000000
  0.181818  0.000000  0.000000      6.000000
  0.272727  0.000000  0.000000      6.000000
  0.363636  0.000000  0.000000      6.000000
  0.454545  0.000000  0.000000      6.000000
  0.090909  0.090909  0.000000     12.000000
  0.181818  0.090909  0.000000     24.000000
  0.272727  0.090909  0.000000     24.000000
  0.363636  0.090909  0.000000     24.000000
  0.454545  0.090909  0.000000     24.000000
  0.181818  0.181818  0.000000     12.000000
  0.272727  0.181818  0.000000     24.000000
  0.363636  0.181818  0.000000     24.000000
  0.454545  0.181818  0.000000     24.000000
  0.272727  0.272727  0.000000     12.000000
  0.363636  0.272727  0.000000     24.000000
  0.454545  0.272727  0.000000     24.000000
  0.363636  0.363636  0.000000     12.000000
  0.454545  0.363636  0.000000     24.000000
  0.454545  0.454545  0.000000     12.000000
  0.090909  0.090909  0.090909      8.000000
  0.181818  0.090909  0.090909     24.000000
  0.272727  0.090909  0.090909     24.000000
  0.363636  0.090909  0.090909     24.000000
  0.454545  0.090909  0.090909     24.000000
  0.181818  0.181818  0.090909     24.000000
  0.272727  0.181818  0.090909     48.000000
  0.363636  0.181818  0.090909     48.000000
  0.454545  0.181818  0.090909     48.000000
  0.272727  0.272727  0.090909     24.000000
  0.363636  0.272727  0.090909     48.000000
  0.454545  0.272727  0.090909     48.000000
  0.363636  0.363636  0.090909     24.000000
  0.454545  0.363636  0.090909     48.000000
  0.454545  0.454545  0.090909     24.000000
  0.181818  0.181818  0.181818      8.000000
  0.272727  0.181818  0.181818     24.000000
  0.363636  0.181818  0.181818     24.000000
  0.454545  0.181818  0.181818     24.000000
  0.272727  0.272727  0.181818     24.000000
  0.363636  0.272727  0.181818     48.000000
  0.454545  0.272727  0.181818     48.000000
  0.363636  0.363636  0.181818     24.000000
  0.454545  0.363636  0.181818     48.000000
  0.454545  0.454545  0.181818     24.000000
  0.272727  0.272727  0.272727      8.000000
  0.363636  0.272727  0.272727     24.000000
  0.454545  0.272727  0.272727     24.000000
  0.363636  0.363636  0.272727     24.000000
  0.454545  0.363636  0.272727     48.000000
  0.454545  0.454545  0.272727     24.000000
  0.363636  0.363636  0.363636      8.000000
  0.454545  0.363636  0.363636     24.000000
  0.454545  0.454545  0.363636     24.000000
  0.454545  0.454545  0.454545      8.000000
 
 Following cartesian coordinates:
            Coordinates               Weight
  0.000000  0.000000  0.000000      1.000000
  0.032010  0.000000  0.000000      6.000000
  0.064019  0.000000  0.000000      6.000000
  0.096029  0.000000  0.000000      6.000000
  0.128039  0.000000  0.000000      6.000000
  0.160048  0.000000  0.000000      6.000000
  0.032010  0.032010  0.000000     12.000000
  0.064019  0.032010  0.000000     24.000000
  0.096029  0.032010  0.000000     24.000000
  0.128039  0.032010  0.000000     24.000000
  0.160048  0.032010  0.000000     24.000000
  0.064019  0.064019  0.000000     12.000000
  0.096029  0.064019  0.000000     24.000000
  0.128039  0.064019  0.000000     24.000000
  0.160048  0.064019  0.000000     24.000000
  0.096029  0.096029  0.000000     12.000000
  0.128039  0.096029  0.000000     24.000000
  0.160048  0.096029  0.000000     24.000000
  0.128039  0.128039  0.000000     12.000000
  0.160048  0.128039  0.000000     24.000000
  0.160048  0.160048  0.000000     12.000000
  0.032010  0.032010  0.032010      8.000000
  0.064019  0.032010  0.032010     24.000000
  0.096029  0.032010  0.032010     24.000000
  0.128039  0.032010  0.032010     24.000000
  0.160048  0.032010  0.032010     24.000000
  0.064019  0.064019  0.032010     24.000000
  0.096029  0.064019  0.032010     48.000000
  0.128039  0.064019  0.032010     48.000000
  0.160048  0.064019  0.032010     48.000000
  0.096029  0.096029  0.032010     24.000000
  0.128039  0.096029  0.032010     48.000000
  0.160048  0.096029  0.032010     48.000000
  0.128039  0.128039  0.032010     24.000000
  0.160048  0.128039  0.032010     48.000000
  0.160048  0.160048  0.032010     24.000000
  0.064019  0.064019  0.064019      8.000000
  0.096029  0.064019  0.064019     24.000000
  0.128039  0.064019  0.064019     24.000000
  0.160048  0.064019  0.064019     24.000000
  0.096029  0.096029  0.064019     24.000000
  0.128039  0.096029  0.064019     48.000000
  0.160048  0.096029  0.064019     48.000000
  0.128039  0.128039  0.064019     24.000000
  0.160048  0.128039  0.064019     48.000000
  0.160048  0.160048  0.064019     24.000000
  0.096029  0.096029  0.096029      8.000000
  0.128039  0.096029  0.096029     24.000000
  0.160048  0.096029  0.096029     24.000000
  0.128039  0.128039  0.096029     24.000000
  0.160048  0.128039  0.096029     48.000000
  0.160048  0.160048  0.096029     24.000000
  0.128039  0.128039  0.128039      8.000000
  0.160048  0.128039  0.128039     24.000000
  0.160048  0.160048  0.128039     24.000000
  0.160048  0.160048  0.160048      8.000000
 
 TETIRR: Found    651 inequivalent tetrahedra from     7986


--------------------------------------------------------------------------------------------------------




 Dimension of arrays:
   k-points           NKPTS =     56   k-points in BZ     NKDIM =     56   number of bands    NBANDS=     24
   number of dos      NEDOS =    301   number of ions     NIONS =      2
   non local maximal  LDIM  =      6   non local SUM 2l+1 LMDIM =     18
   total plane-waves  NPLWV =  21952
   max r-space proj   IRMAX =   8080   max aug-charges    IRDMAX=  28578
   dimension x,y,z NGX =    28 NGY =   28 NGZ =   28
   dimension x,y,z NGXF=    56 NGYF=   56 NGZF=   56
   support grid    NGXF=    56 NGYF=   56 NGZF=   56
   ions per type =               2
   NGX,Y,Z   is equivalent  to a cutoff of  16.39, 16.39, 16.39 a.u.
   NGXF,Y,Z  is equivalent  to a cutoff of  32.78, 32.78, 32.78 a.u.

 SYSTEM =  unknown system                          
 POSCAR =  Fe2                                     

 Startparameter for this run:
   NWRITE =      2    write-flag & timer
   PREC   = accura    normal or accurate (medium, high low for compatibility)
   ISTART =      0    job   : 0-new  1-cont  2-samecut
   ICHARG =      2    charge: 1-file 2-atom 10-const
   ISPIN  =      2    spin polarized calculation?
   LNONCOLLINEAR =      F non collinear calculations
   LSORBIT =      F    spin-orbit coupling
   INIWAV =      1    electr: 0-lowe 1-rand  2-diag
   LASPH  =      F    aspherical Exc in radial PAW
   METAGGA=      F    non-selfconsistent MetaGGA calc.

 Electronic Relaxation 1
   ENCUT  =  920.0 eV  67.62 Ry    8.22 a.u.   7.02  7.02  7.02*2*pi/ulx,y,z
   ENINI  =  920.0     initial cutoff
   ENAUG  =  578.3 eV  augmentation charge cutoff
   NELM   =    100;   NELMIN=  2; NELMDL= -5     # of ELM steps 
   EDIFF  = 0.1E-06   stopping-criterion for ELM
   LREAL  =      T    real-space projection
   NLSPLINE    = F    spline interpolate recip. space projectors
   LCOMPAT=      F    compatible to vasp.4.4
   GGA_COMPAT  = T    GGA compatible to vasp.4.4-vasp.4.6
   LMAXPAW     = -100 max onsite density
   LMAXMIX     =    2 max onsite mixed and CHGCAR
   VOSKOWN=      0    Vosko Wilk Nusair interpolation
   ROPT   =   -0.00025
 Ionic relaxation
   EDIFFG = 0.1E-05   stopping-criterion for IOM
   NSW    =      0    number of steps for IOM
   NBLOCK =      1;   KBLOCK =      1    inner block; outer block 
   IBRION =     -1    ionic relax: 0-MD 1-quasi-New 2-CG
   NFREE  =      0    steps in history (QN), initial steepest desc. (CG)
   ISIF   =      3    stress and relaxation
   IWAVPR =     10    prediction:  0-non 1-charg 2-wave 3-comb
   ISYM   =      2    0-nonsym 1-usesym 2-fastsym
   LCORR  =      T    Harris-Foulkes like correction to forces

   POTIM  = 0.5000    time-step for ionic-motion
   TEIN   =    0.0    initial temperature
   TEBEG  =    0.0;   TEEND  =   0.0 temperature during run
   SMASS  =  -3.00    Nose mass-parameter (am)
   estimated Nose-frequenzy (Omega)   =  0.10E-29 period in steps =****** mass=  -0.184E-27a.u.
   SCALEE = 1.0000    scale energy and forces
   NPACO  =    256;   APACO  = 16.0  distance and # of slots for P.C.
   PSTRESS=    0.0 pullay stress

  Mass of Ions in am
   POMASS =  55.85
  Ionic Valenz
   ZVAL   =  14.00
  Atomic Wigner-Seitz radii
   RWIGS  =  -1.00
  virtual crystal weights 
   VCA    =   1.00
   NELECT =      28.0000    total number of electrons
   NUPDOWN=      -1.0000    fix difference up-down

 DOS related values:
   EMIN   =  10.00;   EMAX   =-10.00  energy-range for DOS
   EFERMI =   0.00
   ISMEAR =    -5;   SIGMA  =   0.05  broadening in eV -4-tet -1-fermi 0-gaus

 Electronic relaxation 2 (details)
   IALGO  =     38    algorithm
   LDIAG  =      T    sub-space diagonalisation (order eigenvalues)
   LSUBROT=      F    optimize rotation matrix (better conditioning)
   TURBO    =      0    0=normal 1=particle mesh
   IRESTART =      0    0=no restart 2=restart with 2 vectors
   NREBOOT  =      0    no. of reboots
   NMIN     =      0    reboot dimension
   EREF     =   0.00    reference energy to select bands
   IMIX   =      4    mixing-type and parameters
     AMIX     =   0.40;   BMIX     =  1.00
     AMIX_MAG =   1.60;   BMIX_MAG =  1.00
     AMIN     =   0.10
     WC   =   100.;   INIMIX=   1;  MIXPRE=   1;  MAXMIX= -45

 Intra band minimization:
   WEIMIN = 0.0000     energy-eigenvalue tresh-hold
   EBREAK =  0.10E-08  absolut break condition
   DEPER  =   0.30     relativ break condition  

   TIME   =   0.40     timestep for ELM

  volume/ion in A,a.u.               =      11.45        77.29
  Fermi-wavevector in a.u.,A,eV,Ry     =   1.750389  3.307755 41.686364  3.063861
  Thomas-Fermi vector in A             =   2.821117
 
 Write flags
   LWAVE        =      F    write WAVECAR
   LDOWNSAMPLE  =      F    k-point downsampling of WAVECAR
   LCHARG       =      F    write CHGCAR
   LVTOT        =      F    write LOCPOT, total local potential
   LVHAR        =      F    write LOCPOT, Hartree potential only
   LELF         =      F    write electronic localiz. function (ELF)
   LORBIT       =     11    0 simple, 1 ext, 2 COOP (PROOUT), +10 PAW based schemes


 Dipole corrections
   LMONO  =      F    monopole corrections only (constant potential shift)
   LDIPOL =      F    correct potential (dipole corrections)
   IDIPOL =      0    1-x, 2-y, 3-z, 4-all directions 
   EPSILON=  1.0000000 bulk dielectric constant

 Exchange correlation treatment:
   GGA     =    --    GGA type
   LEXCH   =     8    internal setting for exchange type
   VOSKOWN=      0    Vosko Wilk Nusair interpolation
   LHFCALC =     F    Hartree Fock is set to
   LHFONE  =     F    Hartree Fock one center treatment
   AEXX    =    0.0000 exact exchange contribution

 Linear response parameters
   LEPSILON=     F    determine dielectric tensor
   LRPA    =     F    only Hartree local field effects (RPA)
   LNABLA  =     F    use nabla operator in PAW spheres
   LVEL    =     F    velocity operator in full k-point grid
   LINTERFAST=   F  fast interpolation
   KINTER  =     0    interpolate to denser k-point grid
   CSHIFT  =0.1000    complex shift for real part using Kramers Kronig
   OMEGAMAX=  -1.0    maximum frequency
   DEG_THRESHOLD= 0.2000000E-02 threshold for treating states as degnerate
   RTIME   =   -0.100 relaxation time in fs
  (WPLASMAI=    0.000 imaginary part of plasma frequency in eV, 0.658/RTIME)
   DFIELD  = 0.0000000 0.0000000 0.0000000 field for delta impulse in time
 
 Orbital magnetization related:
   ORBITALMAG=     F  switch on orbital magnetization
   LCHIMAG   =     F  perturbation theory with respect to B field
   DQ        =  0.001000  dq finite difference perturbation B field
   LLRAUG    =     F  two centre corrections for induced B field



--------------------------------------------------------------------------------------------------------


 Static calculation
 charge density and potential will be updated during run
 spin polarized calculation
 Variant of blocked Davidson
 Davidson routine will perform the subspace rotation
 perform sub-space diagonalisation
    after iterative eigenvector-optimisation
 modified Broyden-mixing scheme, WC =      100.0
 initial mixing is a Kerker type mixing with AMIX =  0.4000 and BMIX =      1.0000
 Hartree-type preconditioning will be used
 using additional bands           10
 real space projection scheme for non local part
 use partial core corrections
 calculate Harris-corrections to forces 
   (improved forces if not selfconsistent)
 use gradient corrections 
 use of overlap-Matrix (Vanderbilt PP)
 Fermi weights with tetrahedron method with Bloechl corrections


--------------------------------------------------------------------------------------------------------


  energy-cutoff  :      920.00
  volume of cell :       22.91
      direct lattice vectors                 reciprocal lattice vectors
     2.840052000  0.000000000  0.000000000     0.352106229  0.000000000  0.000000000
     0.000000000  2.840052000  0.000000000     0.000000000  0.352106229  0.000000000
     0.000000000  0.000000000  2.840052000     0.000000000  0.000000000  0.352106229

  length of vectors
     2.840052000  2.840052000  2.840052000     0.352106229  0.352106229  0.352106229


 
 k-points in units of 2pi/SCALE and weight: Automatic mesh                          
   0.00000000  0.00000000  0.00000000       0.001
   0.03200966  0.00000000  0.00000000       0.005
   0.06401931  0.00000000  0.00000000       0.005
   0.09602897  0.00000000  0.00000000       0.005
   0.12803863  0.00000000  0.00000000       0.005
   0.16004829  0.00000000  0.00000000       0.005
   0.03200966  0.03200966  0.00000000       0.009
   0.06401931  0.03200966  0.00000000       0.018
   0.09602897  0.03200966  0.00000000       0.018
   0.12803863  0.03200966  0.00000000       0.018
   0.16004829  0.03200966  0.00000000       0.018
   0.06401931  0.06401931  0.00000000       0.009
   0.09602897  0.06401931  0.00000000       0.018
   0.12803863  0.06401931  0.00000000       0.018
   0.16004829  0.06401931  0.00000000       0.018
   0.09602897  0.09602897  0.00000000       0.009
   0.12803863  0.09602897  0.00000000       0.018
   0.16004829  0.09602897  0.00000000       0.018
   0.12803863  0.12803863  0.00000000       0.009
   0.16004829  0.12803863  0.00000000       0.018
   0.16004829  0.16004829  0.00000000       0.009
   0.03200966  0.03200966  0.03200966       0.006
   0.06401931  0.03200966  0.03200966       0.018
   0.09602897  0.03200966  0.03200966       0.018
   0.12803863  0.03200966  0.03200966       0.018
   0.16004829  0.03200966  0.03200966       0.018
   0.06401931  0.06401931  0.03200966       0.018
   0.09602897  0.06401931  0.03200966       0.036
   0.12803863  0.06401931  0.03200966       0.036
   0.16004829  0.06401931  0.03200966       0.036
   0.09602897  0.09602897  0.03200966       0.018
   0.12803863  0.09602897  0.03200966       0.036
   0.16004829  0.09602897  0.03200966       0.036
   0.12803863  0.12803863  0.03200966       0.018
   0.16004829  0.12803863  0.03200966       0.036
   0.16004829  0.16004829  0.03200966       0.018
   0.06401931  0.06401931  0.06401931       0.006
   0.09602897  0.06401931  0.06401931       0.018
   0.12803863  0.06401931  0.06401931       0.018
   0.16004829  0.06401931  0.06401931       0.018
   0.09602897  0.09602897  0.06401931       0.018
   0.12803863  0.09602897  0.06401931       0.036
   0.16004829  0.09602897  0.06401931       0.036
   0.12803863  0.12803863  0.06401931       0.018
   0.16004829  0.12803863  0.06401931       0.036
   0.16004829  0.16004829  0.06401931       0.018
   0.09602897  0.09602897  0.09602897       0.006
   0.12803863  0.09602897  0.09602897       0.018
   0.16004829  0.09602897  0.09602897       0.018
   0.12803863  0.12803863  0.09602897       0.018
   0.16004829  0.12803863  0.09602897       0.036
   0.16004829  0.16004829  0.09602897       0.018
   0.12803863  0.12803863  0.12803863       0.006
   0.16004829  0.12803863  0.12803863       0.018
   0.16004829  0.16004829  0.12803863       0.018
   0.16004829  0.16004829  0.16004829       0.006
 
 k-points in reciprocal lattice and weights: Automatic mesh                          
   0.00000000  0.00000000  0.00000000       0.001
   0.09090909  0.00000000  0.00000000       0.005
   0.18181818  0.00000000  0.00000000       0.005
   0.27272727  0.00000000  0.00000000       0.005
   0.36363636  0.00000000  0.00000000       0.005
   0.45454545  0.00000000  0.00000000       0.005
   0.09090909  0.09090909  0.00000000       0.009
   0.18181818  0.09090909  0.00000000       0.018
   0.27272727  0.09090909  0.00000000       0.018
   0.36363636  0.09090909  0.00000000       0.018
   0.45454545  0.09090909  0.00000000       0.018
   0.18181818  0.18181818  0.00000000       0.009
   0.27272727  0.18181818  0.00000000       0.018
   0.36363636  0.18181818  0.00000000       0.018
   0.45454545  0.18181818  0.00000000       0.018
   0.27272727  0.27272727  0.00000000       0.009
   0.36363636  0.27272727  0.00000000       0.018
   0.45454545  0.27272727  0.00000000       0.018
   0.36363636  0.36363636  0.00000000       0.009
   0.45454545  0.36363636  0.00000000       0.018
   0.45454545  0.45454545  0.00000000       0.009
   0.09090909  0.09090909  0.09090909       0.006
   0.18181818  0.09090909  0.09090909       0.018
   0.27272727  0.09090909  0.09090909       0.018
   0.36363636  0.09090909  0.09090909       0.018
   0.45454545  0.09090909  0.09090909       0.018
   0.18181818  0.18181818  0.09090909       0.018
   0.27272727  0.18181818  0.09090909       0.036
   0.36363636  0.18181818  0.09090909       0.036
   0.45454545  0.18181818  0.09090909       0.036
   0.27272727  0.27272727  0.09090909       0.018
   0.36363636  0.27272727  0.09090909       0.036
   0.45454545  0.27272727  0.09090909       0.036
   0.36363636  0.36363636  0.09090909       0.018
   0.45454545  0.36363636  0.09090909       0.036
   0.45454545  0.45454545  0.09090909       0.018
   0.18181818  0.18181818  0.18181818       0.006
   0.27272727  0.18181818  0.18181818       0.018
   0.36363636  0.18181818  0.18181818       0.018
   0.45454545  0.18181818  0.18181818       0.018
   0.27272727  0.27272727  0.18181818       0.018
   0.36363636  0.27272727  0.18181818       0.036
   0.45454545  0.27272727  0.18181818       0.036
   0.36363636  0.36363636  0.18181818       0.018
   0.45454545  0.36363636  0.18181818       0.036
   0.45454545  0.45454545  0.18181818       0.018
   0.27272727  0.27272727  0.27272727       0.006
   0.36363636  0.27272727  0.27272727       0.018
   0.45454545  0.27272727  0.27272727       0.018
   0.36363636  0.36363636  0.27272727       0.018
   0.45454545  0.36363636  0.27272727       0.036
   0.45454545  0.45454545  0.27272727       0.018
   0.36363636  0.36363636  0.36363636       0.006
   0.45454545  0.36363636  0.36363636       0.018
   0.45454545  0.45454545  0.36363636       0.018
   0.45454545  0.45454545  0.45454545       0.006
 
 position of ions in fractional coordinates (direct lattice) 
   0.00000000  0.00000000  0.00000000
   0.50000000  0.50000000  0.50000000
 
 position of ions in cartesian coordinates  (Angst):
   0.00000000  0.00000000  0.00000000
   1.42002600  1.42002600  1.42002600
 


--------------------------------------------------------------------------------------------------------


 k-point  1 :   0.0000 0.0000 0.0000  plane waves:    1419
 k-point  2 :   0.0909 0.0000 0.0000  plane waves:    1418
 k-point  3 :   0.1818 0.0000 0.0000  plane waves:    1434
 k-point  4 :   0.2727 0.0000 0.0000  plane waves:    1434
 k-point  5 :   0.3636 0.0000 0.0000  plane waves:    1450
 k-point  6 :   0.4545 0.0000 0.0000  plane waves:    1446
 k-point  7 :   0.0909 0.0909 0.0000  plane waves:    1422
 k-point  8 :   0.1818 0.0909 0.0000  plane waves:    1436
 k-point  9 :   0.2727 0.0909 0.0000  plane waves:    1445
 k-point 10 :   0.3636 0.0909 0.0000  plane waves:    1452
 k-point 11 :   0.4545 0.0909 0.0000  plane waves:    1455
 k-point 12 :   0.1818 0.1818 0.0000  plane waves:    1428
 k-point 13 :   0.2727 0.1818 0.0000  plane waves:    1445
 k-point 14 :   0.3636 0.1818 0.0000  plane waves:    1447
 k-point 15 :   0.4545 0.1818 0.0000  plane waves:    1462
 k-point 16 :   0.2727 0.2727 0.0000  plane waves:    1454
 k-point 17 :   0.3636 0.2727 0.0000  plane waves:    1450
 k-point 18 :   0.4545 0.2727 0.0000  plane waves:    1449
 k-point 19 :   0.3636 0.3636 0.0000  plane waves:    1446
 k-point 20 :   0.4545 0.3636 0.0000  plane waves:    1441
 k-point 21 :   0.4545 0.4545 0.0000  plane waves:    1464
 k-point 22 :   0.0909 0.0909 0.0909  plane waves:    1433
 k-point 23 :   0.1818 0.0909 0.0909  plane waves:    1439
 k-point 24 :   0.2727 0.0909 0.0909  plane waves:    1445
 k-point 25 :   0.3636 0.0909 0.0909  plane waves:    1459
 k-point 26 :   0.4545 0.0909 0.0909  plane waves:    1452
 k-point 27 :   0.1818 0.1818 0.0909  plane waves:    1444
 k-point 28 :   0.2727 0.1818 0.0909  plane waves:    1447
 k-point 29 :   0.3636 0.1818 0.0909  plane waves:    1454
 k-point 30 :   0.4545 0.1818 0.0909  plane waves:    1445
 k-point 31 :   0.2727 0.2727 0.0909  plane waves:    1440
 k-point 32 :   0.3636 0.2727 0.0909  plane waves:    1461
 k-point 33 :   0.4545 0.2727 0.0909  plane waves:    1461
 k-point 34 :   0.3636 0.3636 0.0909  plane waves:    1453
 k-point 35 :   0.4545 0.3636 0.0909  plane waves:    1453
 k-point 36 :   0.4545 0.4545 0.0909  plane waves:    1461
 k-point 37 :   0.1818 0.1818 0.1818  plane waves:    1445
 k-point 38 :   0.2727 0.1818 0.1818  plane waves:    1453
 k-point 39 :   0.3636 0.1818 0.1818  plane waves:    1455
 k-point 40 :   0.4545 0.1818 0.1818  plane waves:    1458
 k-point 41 :   0.2727 0.2727 0.1818  plane waves:    1448
 k-point 42 :   0.3636 0.2727 0.1818  plane waves:    1462
 k-point 43 :   0.4545 0.2727 0.1818  plane waves:    1456
 k-point 44 :   0.3636 0.3636 0.1818  plane waves:    1459
 k-point 45 :   0.4545 0.3636 0.1818  plane waves:    1458
 k-point 46 :   0.4545 0.4545 0.1818  plane waves:    1452
 k-point 47 :   0.2727 0.2727 0.2727  plane waves:    1454
 k-point 48 :   0.3636 0.2727 0.2727  plane waves:    1456
 k-point 49 :   0.4545 0.2727 0.2727  plane waves:    1464
 k-point 50 :   0.3636 0.3636 0.2727  plane waves:    1451
 k-point 51 :   0.4545 0.3636 0.2727  plane waves:    1457
 k-point 52 :   0.4545 0.4545 0.2727  plane waves:    1454
 k-point 53 :   0.3636 0.3636 0.3636  plane waves:    1454
 k-point 54 :   0.4545 0.3636 0.3636  plane waves:    1457
 k-point 55 :   0.4545 0.4545 0.3636  plane waves:    1452
 k-point 56 :   0.4545 0.4545 0.4545  plane waves:    1448

 maximum and minimum number of plane-waves per node :       387      342

 maximum number of plane-waves:      1464
 maximum index in each direction: 
   IXMAX=    7   IYMAX=    7   IZMAX=    7
   IXMIN=   -7   IYMIN=   -7   IZMIN=   -7


 real space projection operators:
  total allocation   :       2196.28 KBytes
  max/ min on nodes  :        551.81        546.33


 parallel 3D FFT for wavefunctions:
    minimum data exchange during FFTs selected (reduces bandwidth)
 parallel 3D FFT for charge:
    minimum data exchange during FFTs selected (reduces bandwidth)


 total amount of memory used by VASP MPI-rank0    35390. kBytes
=======================================================================

   base      :      30000. kBytes
   nonlr-proj:        945. kBytes
   fftplans  :        478. kBytes
   grid      :       1141. kBytes
   one-center:         31. kBytes
   wavefun   :       2795. kBytes
 
     INWAV:  cpu time    0.0000: real time    0.0001
 Broyden mixing: mesh for mixing (old mesh)
   NGX = 15   NGY = 15   NGZ = 15
  (NGX  = 56   NGY  = 56   NGZ  = 56)
  gives a total of   3375 points

 initial charge density was supplied:
 charge density of overlapping atoms calculated
 number of electron      28.0000000 magnetization      10.0000000
 keeping initial charge density in first step


--------------------------------------------------------------------------------------------------------


 Maximum index for non-local projection operator         1966
 Maximum index for augmentation-charges         1986 (set IRDMAX)


--------------------------------------------------------------------------------------------------------


 First call to EWALD:  gamma=   0.624
 Maximum number of real-space cells 3x 3x 3
 Maximum number of reciprocal cells 3x 3x 3

    FEWALD:  cpu time    0.0013: real time    0.0014


--------------------------------------- Iteration      1(   1)  ---------------------------------------


    POTLOK:  cpu time    0.0134: real time    0.0135
    SETDIJ:  cpu time    0.0077: real time    0.0077
     EDDAV:  cpu time    0.8647: real time    0.8794
 BZINTS: Fermi energy: 22.174384; 28.000000 electrons
         Band energy: -55.789836;  BLOECHL correction: -0.198065
       DOS:  cpu time    0.0561: real time    0.0562
    --------------------------------------------
      LOOP:  cpu time    0.9419: real time    0.9568

 eigenvalue-minimisations  :  5472
 total energy-change (2. order) : 0.2666387E+03  (-0.2404595E+04)
 number of electron      28.0000000 magnetization      10.0000000
 augmentation part       28.0000000 magnetization      10.0000000

 Free energy of the ion-electron system (eV)
  ---------------------------------------------------
  alpha Z        PSCENC =       218.87048721
  Ewald energy   TEWEN  =     -3616.56080017
  -Hartree energ DENC   =     -1162.86386254
  -exchange      EXHF   =         0.00000000
  -V(xc)+E(xc)   XCENC  =       147.54621443
  PAW double counting   =      3997.93860218    -4177.34792201
  entropy T*S    EENTRO =         0.00000000
  eigenvalues    EBANDS =       -55.78983646
  atomic energy  EATOM  =      4914.84579160
  Solvation  Ediel_sol  =         0.00000000
  ---------------------------------------------------
  free energy    TOTEN  =       266.63867424 eV

  energy without entropy =      266.63867424  energy(sigma->0) =      266.63867424


--------------------------------------------------------------------------------------------------------




--------------------------------------- Iteration      1(   2)  ---------------------------------------


     EDDAV:  cpu time    0.8827: real time    0.8898
 BZINTS: Fermi energy: 12.228769; 28.000000 electrons
         Band energy:-330.645087;  BLOECHL correction: -0.060086
       DOS:  cpu time    0.0555: real time    0.0557
    --------------------------------------------
      LOOP:  cpu time    0.9382: real time    0.9455

 eigenvalue-minimisations  :  5472
 total energy-change (2. order) :-0.2748553E+03  (-0.2640517E+03)
 number of electron      28.0000000 magnetization      10.0000000
 augmentation part       28.0000000 magnetization      10.0000000

 Free energy of the ion-electron system (eV)
  ---------------------------------------------------
  alpha Z        PSCENC =       218.87048721
  Ewald energy   TEWEN  =     -3616.56080017
  -Hartree energ DENC   =     -1162.86386254
  -exchange      EXHF   =         0.00000000
  -V(xc)+E(xc)   XCENC  =       147.54621443
  PAW double counting   =      3997.93860218    -4177.34792201
  entropy T*S    EENTRO =         0.00000000
  eigenvalues    EBANDS =      -330.64508674
  atomic energy  EATOM  =      4914.84579160
  Solvation  Ediel_sol  =         0.00000000
  ---------------------------------------------------
  free energy    TOTEN  =        -8.21657604 eV

  energy without entropy =       -8.21657604  energy(sigma->0) =       -8.21657604


--------------------------------------------------------------------------------------------------------




--------------------------------------- Iteration      1(   3)  ---------------------------------------


     EDDAV:  cpu time    0.9475: real time    0.9501
 BZINTS: Fermi energy: 12.034877; 28.000000 electrons
         Band energy:-338.630560;  BLOECHL correction: -0.060400
       DOS:  cpu time    0.0564: real time    0.0565
    --------------------------------------------
      LOOP:  cpu time    1.0038: real time    1.0066

 eigenvalue-minimisations  :  5940
 total energy-change (2. order) :-0.7985473E+01  (-0.7967854E+01)
 number of electron      28.0000000 magnetization      10.0000000
 augmentation part       28.0000000 magnetization      10.0000000

 Free energy of the ion-electron system (eV)
  ---------------------------------------------------
  alpha Z        PSCENC =       218.87048721
  Ewald energy   TEWEN  =     -3616.56080017
  -Hartree energ DENC   =     -1162.86386254
  -exchange      EXHF   =         0.00000000
  -V(xc)+E(xc)   XCENC  =       147.54621443
  PAW double counting   =      3997.93860218    -4177.34792201
  entropy T*S    EENTRO =         0.00000000
  eigenvalues    EBANDS =      -338.63055983
  atomic energy  EATOM  =      4914.84579160
  Solvation  Ediel_sol  =         0.00000000
  ---------------------------------------------------
  free energy    TOTEN  =       -16.20204914 eV

  energy without entropy =      -16.20204914  energy(sigma->0) =      -16.20204914


--------------------------------------------------------------------------------------------------------




--------------------------------------- Iteration      1(   4)  ---------------------------------------


     EDDAV:  cpu time    1.0213: real time    1.0239
 BZINTS: Fermi energy: 12.034295; 28.000000 electrons
         Band energy:-338.701393;  BLOECHL correction: -0.060398
       DOS:  cpu time    0.0569: real time    0.0570
    --------------------------------------------
      LOOP:  cpu time    1.0782: real time    1.0809

 eigenvalue-minimisations  :  6420
 total energy-change (2. order) :-0.7083308E-01  (-0.7083335E-01)
 number of electron      28.0000000 magnetization      10.0000000
 augmentation part       28.0000000 magnetization      10.0000000

 Free energy of the ion-electron system (eV)
  ---------------------------------------------------
  alpha Z        PSCENC =       218.87048721
  Ewald energy   TEWEN  =     -3616.56080017
  -Hartree energ DENC   =     -1162.86386254
  -exchange      EXHF   =         0.00000000
  -V(xc)+E(xc)   XCENC  =       147.54621443
  PAW double counting   =      3997.93860218    -4177.34792201
  entropy T*S    EENTRO =         0.00000000
  eigenvalues    EBANDS =      -338.70139291
  atomic energy  EATOM  =      4914.84579160
  Solvation  Ediel_sol  =         0.00000000
  ---------------------------------------------------
  free energy    TOTEN  =       -16.27288221 eV

  energy without entropy =      -16.27288221  energy(sigma->0) =      -16.27288221


--------------------------------------------------------------------------------------------------------




--------------------------------------- Iteration      1(   5)  ---------------------------------------


     EDDAV:  cpu time    0.9250: real time    0.9273
 BZINTS: Fermi energy: 12.034294; 28.000000 electrons
         Band energy:-338.702695;  BLOECHL correction: -0.060398
       DOS:  cpu time    0.0569: real time    0.0571
    CHARGE:  cpu time    0.0318: real time    0.0319
    MIXING:  cpu time    0.0009: real time    0.0010
    --------------------------------------------
      LOOP:  cpu time    1.0145: real time    1.0173

 eigenvalue-minimisations  :  5832
 total energy-change (2. order) :-0.1301929E-02  (-0.1301970E-02)
 number of electron      27.9999985 magnetization       4.3670347
 augmentation part       15.9050258 magnetization       2.8400573

 Broyden mixing:
  rms(total) = 0.24973E+01    rms(broyden)= 0.24973E+01
  rms(prec ) = 0.39495E+01
  weight for this iteration     100.00

 Free energy of the ion-electron system (eV)
  ---------------------------------------------------
  alpha Z        PSCENC =       218.87048721
  Ewald energy   TEWEN  =     -3616.56080017
  -Hartree energ DENC   =     -1162.86386254
  -exchange      EXHF   =         0.00000000
  -V(xc)+E(xc)   XCENC  =       147.54621443
  PAW double counting   =      3997.93860218    -4177.34792201
  entropy T*S    EENTRO =         0.00000000
  eigenvalues    EBANDS =      -338.70269484
  atomic energy  EATOM  =      4914.84579160
  Solvation  Ediel_sol  =         0.00000000
  ---------------------------------------------------
  free energy    TOTEN  =       -16.27418414 eV

  energy without entropy =      -16.27418414  energy(sigma->0) =      -16.27418414


--------------------------------------------------------------------------------------------------------




--------------------------------------- Iteration      1(   6)  ---------------------------------------


    POTLOK:  cpu time    0.0115: real time    0.0117
    SETDIJ:  cpu time    0.0061: real time    0.0061
     EDDAV:  cpu time    0.8613: real time    0.8633
 BZINTS: Fermi energy:  9.262784; 28.000000 electrons
         Band energy:-409.565587;  BLOECHL correction: -0.034493
       DOS:  cpu time    0.0551: real time    0.0552
    CHARGE:  cpu time    0.0312: real time    0.0313
    MIXING:  cpu time    0.0006: real time    0.0006
    --------------------------------------------
      LOOP:  cpu time    0.9658: real time    0.9682

 eigenvalue-minimisations  :  5448
 total energy-change (2. order) :-0.1840656E+00  (-0.7470067E+00)
 number of electron      27.9999984 magnetization       4.5354931
 augmentation part       17.0724397 magnetization       3.5547284

 Broyden mixing:
  rms(total) = 0.69309E+00    rms(broyden)= 0.69309E+00
  rms(prec ) = 0.87317E+00
  weight for this iteration     100.00

 eigenvalues of (default mixing * dielectric matrix)
  average eigenvalue GAMMA=   0.8367
  0.8367

 Free energy of the ion-electron system (eV)
  ---------------------------------------------------
  alpha Z        PSCENC =       218.87048721
  Ewald energy   TEWEN  =     -3616.56080017
  -Hartree energ DENC   =     -1089.11068409
  -exchange      EXHF   =         0.00000000
  -V(xc)+E(xc)   XCENC  =       140.64336271
  PAW double counting   =      4114.07617991    -4289.65700017
  entropy T*S    EENTRO =         0.00000000
  eigenvalues    EBANDS =      -409.56558679
  atomic energy  EATOM  =      4914.84579160
  Solvation  Ediel_sol  =         0.00000000
  ---------------------------------------------------
  free energy    TOTEN  =       -16.45824979 eV

  energy without entropy =      -16.45824979  energy(sigma->0) =      -16.45824979


--------------------------------------------------------------------------------------------------------




--------------------------------------- Iteration      1(   7)  ---------------------------------------


    POTLOK:  cpu time    0.0112: real time    0.0114
    SETDIJ:  cpu time    0.0059: real time    0.0059
     EDDAV:  cpu time    0.8775: real time    0.8796
 BZINTS: Fermi energy:  9.758993; 28.000000 electrons
         Band energy:-395.012337;  BLOECHL correction: -0.028648
       DOS:  cpu time    0.0509: real time    0.0510
    CHARGE:  cpu time    0.0316: real time    0.0317
    MIXING:  cpu time    0.0005: real time    0.0005
    --------------------------------------------
      LOOP:  cpu time    0.9776: real time    0.9800

 eigenvalue-minimisations  :  5484
 total energy-change (2. order) :-0.5366594E-01  (-0.6650754E-01)
 number of electron      27.9999984 magnetization       4.4492399
 augmentation part       16.7654534 magnetization       3.5229574

 Broyden mixing:
  rms(total) = 0.43665E+00    rms(broyden)= 0.43665E+00
  rms(prec ) = 0.54240E+00
  weight for this iteration     100.00

 eigenvalues of (default mixing * dielectric matrix)
  average eigenvalue GAMMA=   0.7667
  0.9914  0.5420

 Free energy of the ion-electron system (eV)
  ---------------------------------------------------
  alpha Z        PSCENC =       218.87048721
  Ewald energy   TEWEN  =     -3616.56080017
  -Hartree energ DENC   =     -1099.27685552
  -exchange      EXHF   =         0.00000000
  -V(xc)+E(xc)   XCENC  =       141.34294867
  PAW double counting   =      4220.25668673    -4400.97783707
  entropy T*S    EENTRO =         0.00000000
  eigenvalues    EBANDS =      -395.01233718
  atomic energy  EATOM  =      4914.84579160
  Solvation  Ediel_sol  =         0.00000000
  ---------------------------------------------------
  free energy    TOTEN  =       -16.51191573 eV

  energy without entropy =      -16.51191573  energy(sigma->0) =      -16.51191573


--------------------------------------------------------------------------------------------------------




--------------------------------------- Iteration      1(   8)  ---------------------------------------


    POTLOK:  cpu time    0.0114: real time    0.0117
    SETDIJ:  cpu time    0.0059: real time    0.0060
     EDDAV:  cpu time    0.9647: real time    0.9670
 BZINTS: Fermi energy:  9.674601; 28.000000 electrons
         Band energy:-397.592036;  BLOECHL correction: -0.029626
       DOS:  cpu time    0.0548: real time    0.0549
    CHARGE:  cpu time    0.0312: real time    0.0313
    MIXING:  cpu time    0.0005: real time    0.0005
    --------------------------------------------
      LOOP:  cpu time    1.0685: real time    1.0714

 eigenvalue-minimisations  :  6144
 total energy-change (2. order) :-0.8855303E-02  (-0.1607496E-02)
 number of electron      27.9999984 magnetization       4.3666224
 augmentation part       16.8073020 magnetization       3.4401017

 Broyden mixing:
  rms(total) = 0.13573E+00    rms(broyden)= 0.13573E+00
  rms(prec ) = 0.21669E+00
  weight for this iteration     100.00

 eigenvalues of (default mixing * dielectric matrix)
  average eigenvalue GAMMA=   1.0356
  1.6749  0.8476  0.5844

 Free energy of the ion-electron system (eV)
  ---------------------------------------------------
  alpha Z        PSCENC =       218.87048721
  Ewald energy   TEWEN  =     -3616.56080017
  -Hartree energ DENC   =     -1095.03997225
  -exchange      EXHF   =         0.00000000
  -V(xc)+E(xc)   XCENC  =       141.10014934
  PAW double counting   =      4267.94238776    -4450.08677810
  entropy T*S    EENTRO =         0.00000000
  eigenvalues    EBANDS =      -397.59203643
  atomic energy  EATOM  =      4914.84579160
  Solvation  Ediel_sol  =         0.00000000
  ---------------------------------------------------
  free energy    TOTEN  =       -16.52077103 eV

  energy without entropy =      -16.52077103  energy(sigma->0) =      -16.52077103


--------------------------------------------------------------------------------------------------------




--------------------------------------- Iteration      1(   9)  ---------------------------------------


    POTLOK:  cpu time    0.0113: real time    0.0115
    SETDIJ:  cpu time    0.0059: real time    0.0059
     EDDAV:  cpu time    0.9201: real time    0.9223
 BZINTS: Fermi energy:  9.594956; 28.000000 electrons
         Band energy:-400.013173;  BLOECHL correction: -0.030612
       DOS:  cpu time    0.0581: real time    0.0582
    CHARGE:  cpu time    0.0312: real time    0.0313
    MIXING:  cpu time    0.0005: real time    0.0005
    --------------------------------------------
      LOOP:  cpu time    1.0270: real time    1.0297

 eigenvalue-minimisations  :  5844
 total energy-change (2. order) : 0.7830427E-02  (-0.5539212E-03)
 number of electron      27.9999984 magnetization       4.3967353
 augmentation part       16.8458173 magnetization       3.4670783

 Broyden mixing:
  rms(total) = 0.34211E-01    rms(broyden)= 0.34211E-01
  rms(prec ) = 0.47316E-01
  weight for this iteration     100.00

 eigenvalues of (default mixing * dielectric matrix)
  average eigenvalue GAMMA=   1.1673
  2.2819  1.0616  0.6744  0.6513

 Free energy of the ion-electron system (eV)
  ---------------------------------------------------
  alpha Z        PSCENC =       218.87048721
  Ewald energy   TEWEN  =     -3616.56080017
  -Hartree energ DENC   =     -1090.01898249
  -exchange      EXHF   =         0.00000000
  -V(xc)+E(xc)   XCENC  =       140.84226321
  PAW double counting   =      4342.54961345    -4527.02814029
  entropy T*S    EENTRO =         0.00000000
  eigenvalues    EBANDS =      -400.01317312
  atomic energy  EATOM  =      4914.84579160
  Solvation  Ediel_sol  =         0.00000000
  ---------------------------------------------------
  free energy    TOTEN  =       -16.51294060 eV

  energy without entropy =      -16.51294060  energy(sigma->0) =      -16.51294060


--------------------------------------------------------------------------------------------------------




--------------------------------------- Iteration      1(  10)  ---------------------------------------


    POTLOK:  cpu time    0.0113: real time    0.0115
    SETDIJ:  cpu time    0.0059: real time    0.0059
     EDDAV:  cpu time    0.8986: real time    0.9007
 BZINTS: Fermi energy:  9.610441; 28.000000 electrons
         Band energy:-399.430331;  BLOECHL correction: -0.030582
       DOS:  cpu time    0.0490: real time    0.0491
    CHARGE:  cpu time    0.0311: real time    0.0311
    MIXING:  cpu time    0.0005: real time    0.0005
    --------------------------------------------
      LOOP:  cpu time    0.9964: real time    0.9989

 eigenvalue-minimisations  :  5676
 total energy-change (2. order) : 0.4579284E-03  (-0.2384460E-03)
 number of electron      27.9999984 magnetization       4.4031680
 augmentation part       16.8329377 magnetization       3.4714491

 Broyden mixing:
  rms(total) = 0.47802E-02    rms(broyden)= 0.47802E-02
  rms(prec ) = 0.60089E-02
  weight for this iteration     100.00

 eigenvalues of (default mixing * dielectric matrix)
  average eigenvalue GAMMA=   1.1291
  2.4104  1.1143  0.7800  0.7127  0.6280

 Free energy of the ion-electron system (eV)
  ---------------------------------------------------
  alpha Z        PSCENC =       218.87048721
  Ewald energy   TEWEN  =     -3616.56080017
  -Hartree energ DENC   =     -1089.63718085
  -exchange      EXHF   =         0.00000000
  -V(xc)+E(xc)   XCENC  =       140.85064006
  PAW double counting   =      4371.69203088    -4557.14312012
  entropy T*S    EENTRO =         0.00000000
  eigenvalues    EBANDS =      -399.43033129
  atomic energy  EATOM  =      4914.84579160
  Solvation  Ediel_sol  =         0.00000000
  ---------------------------------------------------
  free energy    TOTEN  =       -16.51248267 eV

  energy without entropy =      -16.51248267  energy(sigma->0) =      -16.51248267


--------------------------------------------------------------------------------------------------------




--------------------------------------- Iteration      1(  11)  ---------------------------------------


    POTLOK:  cpu time    0.0112: real time    0.0114
    SETDIJ:  cpu time    0.0059: real time    0.0059
     EDDAV:  cpu time    0.9300: real time    0.9322
 BZINTS: Fermi energy:  9.608763; 28.000000 electrons
         Band energy:-399.458596;  BLOECHL correction: -0.030629
       DOS:  cpu time    0.0509: real time    0.0510
    CHARGE:  cpu time    0.0304: real time    0.0304
    MIXING:  cpu time    0.0005: real time    0.0005
    --------------------------------------------
      LOOP:  cpu time    1.0287: real time    1.0314

 eigenvalue-minimisations  :  5880
 total energy-change (2. order) :-0.9395616E-04  (-0.5335602E-05)
 number of electron      27.9999984 magnetization       4.4030184
 augmentation part       16.8334079 magnetization       3.4716426

 Broyden mixing:
  rms(total) = 0.25567E-02    rms(broyden)= 0.25567E-02
  rms(prec ) = 0.34090E-02
  weight for this iteration     100.00

 eigenvalues of (default mixing * dielectric matrix)
  average eigenvalue GAMMA=   1.2263
  2.4133  1.7907  1.0708  0.6301  0.7460  0.7068

 Free energy of the ion-electron system (eV)
  ---------------------------------------------------
  alpha Z        PSCENC =       218.87048721
  Ewald energy   TEWEN  =     -3616.56080017
  -Hartree energ DENC   =     -1089.61872713
  -exchange      EXHF   =         0.00000000
  -V(xc)+E(xc)   XCENC  =       140.85380251
  PAW double counting   =      4373.29880484    -4558.74333928
  entropy T*S    EENTRO =         0.00000000
  eigenvalues    EBANDS =      -399.45859621
  atomic energy  EATOM  =      4914.84579160
  Solvation  Ediel_sol  =         0.00000000
  ---------------------------------------------------
  free energy    TOTEN  =       -16.51257663 eV

  energy without entropy =      -16.51257663  energy(sigma->0) =      -16.51257663


--------------------------------------------------------------------------------------------------------




--------------------------------------- Iteration      1(  12)  ---------------------------------------


    POTLOK:  cpu time    0.0108: real time    0.0110
    SETDIJ:  cpu time    0.0055: real time    0.0056
     EDDAV:  cpu time    0.9881: real time    0.9910
 BZINTS: Fermi energy:  9.607204; 28.000000 electrons
         Band energy:-399.492828;  BLOECHL correction: -0.030665
       DOS:  cpu time    0.0565: real time    0.0566
    CHARGE:  cpu time    0.0316: real time    0.0317
    MIXING:  cpu time    0.0006: real time    0.0006
    --------------------------------------------
      LOOP:  cpu time    1.0930: real time    1.0964

 eigenvalue-minimisations  :  6312
 total energy-change (2. order) :-0.3252751E-04  (-0.4576599E-06)
 number of electron      27.9999984 magnetization       4.4020464
 augmentation part       16.8341463 magnetization       3.4708870

 Broyden mixing:
  rms(total) = 0.85430E-03    rms(broyden)= 0.85430E-03
  rms(prec ) = 0.12762E-02
  weight for this iteration     100.00

 eigenvalues of (default mixing * dielectric matrix)
  average eigenvalue GAMMA=   1.2211
  2.4195  1.9300  1.1402  1.0002  0.6365  0.6710  0.7506

 Free energy of the ion-electron system (eV)
  ---------------------------------------------------
  alpha Z        PSCENC =       218.87048721
  Ewald energy   TEWEN  =     -3616.56080017
  -Hartree energ DENC   =     -1089.65033418
  -exchange      EXHF   =         0.00000000
  -V(xc)+E(xc)   XCENC  =       140.85583078
  PAW double counting   =      4374.23646018    -4559.61721676
  entropy T*S    EENTRO =         0.00000000
  eigenvalues    EBANDS =      -399.49282782
  atomic energy  EATOM  =      4914.84579160
  Solvation  Ediel_sol  =         0.00000000
  ---------------------------------------------------
  free energy    TOTEN  =       -16.51260916 eV

  energy without entropy =      -16.51260916  energy(sigma->0) =      -16.51260916


--------------------------------------------------------------------------------------------------------




--------------------------------------- Iteration      1(  13)  ---------------------------------------


    POTLOK:  cpu time    0.0119: real time    0.0122
    SETDIJ:  cpu time    0.0061: real time    0.0061
     EDDAV:  cpu time    0.8950: real time    0.8975
 BZINTS: Fermi energy:  9.607999; 28.000000 electrons
         Band energy:-399.479499;  BLOECHL correction: -0.030640
       DOS:  cpu time    0.0565: real time    0.0567
    CHARGE:  cpu time    0.0313: real time    0.0314
    MIXING:  cpu time    0.0006: real time    0.0006
    --------------------------------------------
      LOOP:  cpu time    1.0014: real time    1.0045

 eigenvalue-minimisations  :  5640
 total energy-change (2. order) : 0.2466519E-04  (-0.2430180E-06)
 number of electron      27.9999984 magnetization       4.4020130
 augmentation part       16.8337787 magnetization       3.4706976

 Broyden mixing:
  rms(total) = 0.34789E-03    rms(broyden)= 0.34789E-03
  rms(prec ) = 0.40727E-03
  weight for this iteration     100.00

 eigenvalues of (default mixing * dielectric matrix)
  average eigenvalue GAMMA=   1.2833
  2.5032  2.5032  1.4254  1.0586  0.7963  0.6230  0.6782  0.6782

 Free energy of the ion-electron system (eV)
  ---------------------------------------------------
  alpha Z        PSCENC =       218.87048721
  Ewald energy   TEWEN  =     -3616.56080017
  -Hartree energ DENC   =     -1089.66817176
  -exchange      EXHF   =         0.00000000
  -V(xc)+E(xc)   XCENC  =       140.85556052
  PAW double counting   =      4374.38351507    -4559.75946839
  entropy T*S    EENTRO =         0.00000000
  eigenvalues    EBANDS =      -399.47949858
  atomic energy  EATOM  =      4914.84579160
  Solvation  Ediel_sol  =         0.00000000
  ---------------------------------------------------
  free energy    TOTEN  =       -16.51258449 eV

  energy without entropy =      -16.51258449  energy(sigma->0) =      -16.51258449


--------------------------------------------------------------------------------------------------------




--------------------------------------- Iteration      1(  14)  ---------------------------------------


    POTLOK:  cpu time    0.0112: real time    0.0114
    SETDIJ:  cpu time    0.0061: real time    0.0061
     EDDAV:  cpu time    0.9260: real time    0.9282
 BZINTS: Fermi energy:  9.607885; 28.000000 electrons
         Band energy:-399.481675;  BLOECHL correction: -0.030643
       DOS:  cpu time    0.0517: real time    0.0519
    CHARGE:  cpu time    0.0306: real time    0.0307
    MIXING:  cpu time    0.0006: real time    0.0006
    --------------------------------------------
      LOOP:  cpu time    1.0263: real time    1.0288

 eigenvalue-minimisations  :  5808
 total energy-change (2. order) :-0.2765280E-05  (-0.2594690E-07)
 number of electron      27.9999984 magnetization       4.4020495
 augmentation part       16.8338314 magnetization       3.4707693

 Broyden mixing:
  rms(total) = 0.93215E-04    rms(broyden)= 0.93215E-04
  rms(prec ) = 0.11250E-03
  weight for this iteration     100.00

 eigenvalues of (default mixing * dielectric matrix)
  average eigenvalue GAMMA=   1.2060
  2.6020  2.4822  1.2974  1.0437  0.8165  0.6480  0.6480  0.6582  0.6582

 Free energy of the ion-electron system (eV)
  ---------------------------------------------------
  alpha Z        PSCENC =       218.87048721
  Ewald energy   TEWEN  =     -3616.56080017
  -Hartree energ DENC   =     -1089.66910323
  -exchange      EXHF   =         0.00000000
  -V(xc)+E(xc)   XCENC  =       140.85563918
  PAW double counting   =      4374.44411299    -4559.81703939
  entropy T*S    EENTRO =         0.00000000
  eigenvalues    EBANDS =      -399.48167546
  atomic energy  EATOM  =      4914.84579160
  Solvation  Ediel_sol  =         0.00000000
  ---------------------------------------------------
  free energy    TOTEN  =       -16.51258726 eV

  energy without entropy =      -16.51258726  energy(sigma->0) =      -16.51258726


--------------------------------------------------------------------------------------------------------




--------------------------------------- Iteration      1(  15)  ---------------------------------------


    POTLOK:  cpu time    0.0109: real time    0.0110
    SETDIJ:  cpu time    0.0059: real time    0.0059
     EDDAV:  cpu time    0.6149: real time    0.6164
 BZINTS: Fermi energy:  9.607844; 28.000000 electrons
         Band energy:-399.482437;  BLOECHL correction: -0.030644
       DOS:  cpu time    0.0562: real time    0.0563
    CHARGE:  cpu time    0.0313: real time    0.0313
    MIXING:  cpu time    0.0007: real time    0.0007
    --------------------------------------------
      LOOP:  cpu time    0.7199: real time    0.7217

 eigenvalue-minimisations  :  3060
 total energy-change (2. order) :-0.1085607E-05  (-0.5066269E-09)
 number of electron      27.9999984 magnetization       4.4020490
 augmentation part       16.8338499 magnetization       3.4707773

 Broyden mixing:
  rms(total) = 0.20321E-04    rms(broyden)= 0.20321E-04
  rms(prec ) = 0.28295E-04
  weight for this iteration     100.00

 eigenvalues of (default mixing * dielectric matrix)
  average eigenvalue GAMMA=   1.2195
  2.6454  2.4561  1.2998  1.2998  1.0545  0.8114  0.6808  0.6808  0.6334  0.6334

 Free energy of the ion-electron system (eV)
  ---------------------------------------------------
  alpha Z        PSCENC =       218.87048721
  Ewald energy   TEWEN  =     -3616.56080017
  -Hartree energ DENC   =     -1089.66858397
  -exchange      EXHF   =         0.00000000
  -V(xc)+E(xc)   XCENC  =       140.85567880
  PAW double counting   =      4374.44182616    -4559.81455104
  entropy T*S    EENTRO =         0.00000000
  eigenvalues    EBANDS =      -399.48243693
  atomic energy  EATOM  =      4914.84579160
  Solvation  Ediel_sol  =         0.00000000
  ---------------------------------------------------
  free energy    TOTEN  =       -16.51258834 eV

  energy without entropy =      -16.51258834  energy(sigma->0) =      -16.51258834


--------------------------------------------------------------------------------------------------------




--------------------------------------- Iteration      1(  16)  ---------------------------------------


    POTLOK:  cpu time    0.0112: real time    0.0113
    SETDIJ:  cpu time    0.0060: real time    0.0060
     EDDAV:  cpu time    0.5989: real time    0.6005
 BZINTS: Fermi energy:  9.607836; 28.000000 electrons
         Band energy:-399.482587;  BLOECHL correction: -0.030644
       DOS:  cpu time    0.0579: real time    0.0580
    CHARGE:  cpu time    0.0313: real time    0.0314
    MIXING:  cpu time    0.0007: real time    0.0007
    --------------------------------------------
      LOOP:  cpu time    0.7060: real time    0.7079

 eigenvalue-minimisations  :  2940
 total energy-change (2. order) :-0.3267414E-06  (-0.1134766E-09)
 number of electron      27.9999984 magnetization       4.4020573
 augmentation part       16.8338551 magnetization       3.4707877

 Broyden mixing:
  rms(total) = 0.14198E-04    rms(broyden)= 0.14198E-04
  rms(prec ) = 0.18702E-04
  weight for this iteration     100.00

 eigenvalues of (default mixing * dielectric matrix)
  average eigenvalue GAMMA=   1.2987
  2.6197  2.4811  2.4811  1.2214  1.0216  1.0216  0.7981  0.6914  0.6914  0.6291
  0.6291

 Free energy of the ion-electron system (eV)
  ---------------------------------------------------
  alpha Z        PSCENC =       218.87048721
  Ewald energy   TEWEN  =     -3616.56080017
  -Hartree energ DENC   =     -1089.66815110
  -exchange      EXHF   =         0.00000000
  -V(xc)+E(xc)   XCENC  =       140.85567056
  PAW double counting   =      4374.42224778    -4559.79524740
  entropy T*S    EENTRO =         0.00000000
  eigenvalues    EBANDS =      -399.48258715
  atomic energy  EATOM  =      4914.84579160
  Solvation  Ediel_sol  =         0.00000000
  ---------------------------------------------------
  free energy    TOTEN  =       -16.51258867 eV

  energy without entropy =      -16.51258867  energy(sigma->0) =      -16.51258867


--------------------------------------------------------------------------------------------------------




--------------------------------------- Iteration      1(  17)  ---------------------------------------


    POTLOK:  cpu time    0.0112: real time    0.0115
    SETDIJ:  cpu time    0.0059: real time    0.0060
     EDDAV:  cpu time    0.5818: real time    0.5832
 BZINTS: Fermi energy:  9.607848; 28.000000 electrons
         Band energy:-399.482319;  BLOECHL correction: -0.030644
       DOS:  cpu time    0.0549: real time    0.0551
    CHARGE:  cpu time    0.0313: real time    0.0314
    MIXING:  cpu time    0.0007: real time    0.0007
    --------------------------------------------
      LOOP:  cpu time    0.6859: real time    0.6878

 eigenvalue-minimisations  :  2844
 total energy-change (2. order) : 0.1831686E-06  (-0.2571620E-10)
 number of electron      27.9999984 magnetization       4.4020574
 augmentation part       16.8338494 magnetization       3.4707855

 Broyden mixing:
  rms(total) = 0.31418E-05    rms(broyden)= 0.31418E-05
  rms(prec ) = 0.35220E-05
  weight for this iteration     100.00

 eigenvalues of (default mixing * dielectric matrix)
  average eigenvalue GAMMA=   1.2637
  2.6593  2.5641  2.5641  1.2482  1.0187  0.9493  0.8168  0.7125  0.7063  0.6786
  0.6269  0.6191

 Free energy of the ion-electron system (eV)
  ---------------------------------------------------
  alpha Z        PSCENC =       218.87048721
  Ewald energy   TEWEN  =     -3616.56080017
  -Hartree energ DENC   =     -1089.66816071
  -exchange      EXHF   =         0.00000000
  -V(xc)+E(xc)   XCENC  =       140.85566753
  PAW double counting   =      4374.40802892    -4559.78128413
  entropy T*S    EENTRO =         0.00000000
  eigenvalues    EBANDS =      -399.48231873
  atomic energy  EATOM  =      4914.84579160
  Solvation  Ediel_sol  =         0.00000000
  ---------------------------------------------------
  free energy    TOTEN  =       -16.51258849 eV

  energy without entropy =      -16.51258849  energy(sigma->0) =      -16.51258849


--------------------------------------------------------------------------------------------------------




--------------------------------------- Iteration      1(  18)  ---------------------------------------


    POTLOK:  cpu time    0.0112: real time    0.0115
    SETDIJ:  cpu time    0.0060: real time    0.0060
     EDDAV:  cpu time    0.5822: real time    0.5836
 BZINTS: Fermi energy:  9.607847; 28.000000 electrons
         Band energy:-399.482352;  BLOECHL correction: -0.030644
       DOS:  cpu time    0.0563: real time    0.0564
    --------------------------------------------
      LOOP:  cpu time    0.6557: real time    0.6575

 eigenvalue-minimisations  :  2808
 total energy-change (2. order) :-0.2262914E-07  (-0.2685760E-11)
 number of electron      27.9999984 magnetization       4.4020574
 augmentation part       16.8338494 magnetization       3.4707855

 Free energy of the ion-electron system (eV)
  ---------------------------------------------------
  alpha Z        PSCENC =       218.87048721
  Ewald energy   TEWEN  =     -3616.56080017
  -Hartree energ DENC   =     -1089.66817684
  -exchange      EXHF   =         0.00000000
  -V(xc)+E(xc)   XCENC  =       140.85566944
  PAW double counting   =      4374.40821853    -4559.78142631
  entropy T*S    EENTRO =         0.00000000
  eigenvalues    EBANDS =      -399.48235197
  atomic energy  EATOM  =      4914.84579160
  Solvation  Ediel_sol  =         0.00000000
  ---------------------------------------------------
  free energy    TOTEN  =       -16.51258851 eV

  energy without entropy =      -16.51258851  energy(sigma->0) =      -16.51258851


--------------------------------------------------------------------------------------------------------




 average (electrostatic) potential at core
  the test charge radii are     0.9500
  (the norm of the test charge is              1.0000)
       1 -73.6759       2 -73.6759
 
 
 
 E-fermi :   9.6078     XC(G=0): -13.6255     alpha+bet :-17.4163


 spin component 1

 k-point     1 :       0.0000    0.0000    0.0000
  band No.  band energies     occupation 
      1     -44.5656      1.00000
      2     -44.5656      1.00000
      3     -44.5656      1.00000
      4     -44.2791      1.00000
      5     -44.2791      1.00000
      6     -44.2791      1.00000
      7       1.2372      1.00000
      8       4.8644      1.00000
      9       4.8644      1.00000
     10       7.3310      1.00000
     11       7.3310      1.00000
     12       7.3310      1.00000
     13       8.5922      1.00000
     14       8.5922      1.00000
     15       9.7207      0.52551
     16       9.7207      0.05439
     17       9.7207     -0.00091
     18      19.4705      0.00000
     19      19.4705      0.00000
     20      19.4705      0.00000
     21      25.3227      0.00000
     22      25.3227      0.00000
     23      30.2091      0.00000
     24      33.9456      0.00000

 k-point     2 :       0.0909    0.0000    0.0000
  band No.  band energies     occupation 
      1     -44.5647      1.00000
      2     -44.5595      1.00000
      3     -44.5595      1.00000
      4     -44.2899      1.00000
      5     -44.2845      1.00000
      6     -44.2845      1.00000
      7       1.4076      1.00000
      8       4.9366      1.00000
      9       4.9385      1.00000
     10       7.3298      1.00000
     11       7.3298      1.00000
     12       7.3770      1.00000
     13       8.5159      1.00000
     14       8.6221      1.00000
     15       9.5795      0.95858
     16       9.5795      0.94742
     17       9.6700      0.00537
     18      18.3391      0.00000
     19      19.7941      0.00000
     20      19.7941      0.00000
     21      25.3683      0.00000
     22      26.1127      0.00000
     23      30.7992      0.00000
     24      33.0491      0.00000

 k-point     3 :       0.1818    0.0000    0.0000
  band No.  band energies     occupation 
      1     -44.5610      1.00000
      2     -44.5416      1.00000
      3     -44.5416      1.00000
      4     -44.3204      1.00000
      5     -44.3006      1.00000
      6     -44.3006      1.00000
      7       1.9061      1.00000
      8       5.1346      1.00000
      9       5.1485      1.00000
     10       7.3348      1.00000
     11       7.3348      1.00000
     12       7.5120      1.00000
     13       8.2927      1.00000
     14       8.7082      1.00000
     15       9.2162      1.00000
     16       9.2162      1.00000
     17       9.5224      0.89076
     18      16.1518      0.00000
     19      20.7012      0.00000
     20      20.7012      0.00000
     21      25.5105      0.00000
     22      27.0761      0.00000
     23      31.4152      0.00000
     24      32.8064      0.00000

 k-point     4 :       0.2727    0.0000    0.0000
  band No.  band energies     occupation 
      1     -44.5517      1.00000
      2     -44.5138      1.00000
      3     -44.5138      1.00000
      4     -44.3647      1.00000
      5     -44.3261      1.00000
      6     -44.3261      1.00000
      7       2.6891      1.00000
      8       5.3704      1.00000
      9       5.4859      1.00000
     10       7.3692      1.00000
     11       7.3692      1.00000
     12       7.7263      1.00000
     13       7.9394      1.00000
     14       8.7550      1.00000
     15       8.7550      1.00000
     16       8.8479      1.00000
     17       9.2914      1.08934
     18      13.8920      0.00000
     19      22.0573      0.00000
     20      22.0573      0.00000
     21      25.7655      0.00000
     22      27.6015      0.00000
     23      29.8527      0.00000
     24      31.8192      0.00000

 k-point     5 :       0.3636    0.0000    0.0000
  band No.  band energies     occupation 
      1     -44.5335      1.00000
      2     -44.4784      1.00000
      3     -44.4784      1.00000
      4     -44.4151      1.00000
      5     -44.3593      1.00000
      6     -44.3593      1.00000
      7       3.6620      1.00000
      8       5.4969      1.00000
      9       5.9248      1.00000
     10       7.4624      1.00000
     11       7.4624      1.00000
     12       7.4847      1.00000
     13       8.0048      1.00000
     14       8.3022      1.00000
     15       8.3022      1.00000
     16       8.9976      1.00000
     17       9.0696      1.00000
     18      11.8958      0.00000
     19      23.7372      0.00000
     20      23.7372      0.00000
     21      26.1594      0.00000
     22      28.0873      0.00000
     23      28.5431      0.00000
     24      29.8228      0.00000

 k-point     6 :       0.4545    0.0000    0.0000
  band No.  band energies     occupation 
      1     -44.5041      1.00000
      2     -44.4636      1.00000
      3     -44.4386      1.00000
      4     -44.4386      1.00000
      5     -44.3978      1.00000
      6     -44.3978      1.00000
      7       4.6322      1.00000
      8       5.2988      1.00000
      9       6.4323      1.00000
     10       6.9673      1.00000
     11       7.6412      1.00000
     12       7.6412      1.00000
     13       7.9218      1.00000
     14       7.9218      1.00000
     15       8.3266      1.00000
     16       8.6667      1.00000
     17       9.4983      1.00000
     18      10.3885      0.00000
     19      25.6460      0.00000
[...]
     19      18.2899      0.00000
     20      20.6333      0.00000
     21      21.9760      0.00000
     22      24.2384      0.00000
     23      25.4877      0.00000
     24      29.1167      0.00000

 k-point    51 :       0.4545    0.3636    0.2727
  band No.  band energies     occupation 
      1     -42.0385      1.00000
      2     -42.0348      1.00000
      3     -41.8942      1.00000
      4     -41.8463      1.00000
      5     -41.7442      1.00000
      6     -41.7363      1.00000
      7       6.9090      1.00000
      8       7.1221      1.00000
      9       7.9152      1.00000
     10       7.9318      1.00000
     11       8.3019      1.00000
     12       8.4332      1.00000
     13      11.2396      0.00000
     14      11.2781      0.00000
     15      11.5060      0.00000
     16      11.5116      0.00000
     17      14.1772      0.00000
     18      15.1687      0.00000
     19      19.0477      0.00000
     20      20.3624      0.00000
     21      21.6268      0.00000
     22      22.9928      0.00000
     23      26.0208      0.00000
     24      27.3866      0.00000

 k-point    52 :       0.4545    0.4545    0.2727
  band No.  band energies     occupation 
      1     -42.0409      1.00000
      2     -42.0388      1.00000
      3     -41.8764      1.00000
      4     -41.8568      1.00000
      5     -41.7518      1.00000
      6     -41.7468      1.00000
      7       6.9893      1.00000
      8       7.0425      1.00000
      9       7.8482      1.00000
     10       7.8617      1.00000
     11       8.5540      1.00000
     12       8.6177      1.00000
     13      11.3291      0.00000
     14      11.3466      0.00000
     15      11.5215      0.00000
     16      11.5263      0.00000
     17      14.8457      0.00000
     18      15.3293      0.00000
     19      18.4138      0.00000
     20      19.0099      0.00000
     21      22.6376      0.00000
     22      23.6507      0.00000
     23      24.6577      0.00000
     24      25.6685      0.00000

 k-point    53 :       0.3636    0.3636    0.3636
  band No.  band energies     occupation 
      1     -42.0249      1.00000
      2     -41.9715      1.00000
      3     -41.9715      1.00000
      4     -41.7973      1.00000
      5     -41.7973      1.00000
      6     -41.7440      1.00000
      7       7.1528      1.00000
      8       7.4682      1.00000
      9       7.8821      1.00000
     10       7.8821      1.00000
     11       8.0689      1.00000
     12       8.0689      1.00000
     13      11.3916      0.00000
     14      11.3916      0.00000
     15      11.4277      0.00000
     16      11.4277      0.00000
     17      14.2193      0.00000
     18      17.5371      0.00000
     19      17.5371      0.00000
     20      19.8940      0.00000
     21      22.4187      0.00000
     22      22.4187      0.00000
     23      23.6726      0.00000
     24      27.1908      0.00000

 k-point    54 :       0.4545    0.3636    0.3636
  band No.  band energies     occupation 
      1     -42.0152      1.00000
      2     -41.9982      1.00000
      3     -41.9135      1.00000
      4     -41.8538      1.00000
      5     -41.7814      1.00000
      6     -41.7619      1.00000
      7       7.3838      1.00000
      8       7.4129      1.00000
      9       7.8507      1.00000
     10       7.9116      1.00000
     11       8.0180      1.00000
     12       8.1781      1.00000
     13      11.3861      0.00000
     14      11.4059      0.00000
     15      11.4978      0.00000
     16      11.5086      0.00000
     17      15.1234      0.00000
     18      16.2473      0.00000
     19      19.0496      0.00000
     20      20.3742      0.00000
     21      20.6813      0.00000
     22      21.4566      0.00000
     23      24.0549      0.00000
     24      25.4444      0.00000

 k-point    55 :       0.4545    0.4545    0.3636
  band No.  band energies     occupation 
      1     -41.9963      1.00000
      2     -41.9850      1.00000
      3     -41.9009      1.00000
      4     -41.8675      1.00000
      5     -41.8030      1.00000
      6     -41.7888      1.00000
      7       7.4749      1.00000
      8       7.5077      1.00000
      9       7.7858      1.00000
     10       7.8336      1.00000
     11       8.1337      1.00000
     12       8.2087      1.00000
     13      11.4532      0.00000
     14      11.4612      0.00000
     15      11.5273      0.00000
     16      11.5313      0.00000
     17      16.0740      0.00000
     18      16.7902      0.00000
     19      18.5759      0.00000
     20      19.4550      0.00000
     21      20.8808      0.00000
     22      21.8316      0.00000
     23      22.6851      0.00000
     24      23.7283      0.00000

 k-point    56 :       0.4545    0.4545    0.4545
  band No.  band energies     occupation 
      1     -41.9542      1.00000
      2     -41.9244      1.00000
      3     -41.9244      1.00000
      4     -41.8620      1.00000
      5     -41.8620      1.00000
      6     -41.8321      1.00000
      7       7.6740      1.00000
      8       7.8039      1.00000
      9       7.8039      1.00000
     10       7.9100      1.00000
     11       7.9380      1.00000
     12       7.9380      1.00000
     13      11.5332      0.00000
     14      11.5332      0.00000
     15      11.5355      0.00000
     16      11.5355      0.00000
     17      17.2948      0.00000
     18      18.3746      0.00000
     19      18.3746      0.00000
     20      19.9929      0.00000
     21      20.0622      0.00000
     22      20.0622      0.00000
     23      21.4469      0.00000
     24      22.0995      0.00000


--------------------------------------------------------------------------------------------------------


 soft charge-density along one line, spin component           1
         0         1         2         3         4         5         6         7         8         9
 total charge-density along one line
 
 soft charge-density along one line, spin component           2
         0         1         2         3         4         5         6         7         8         9
 total charge-density along one line
 
 pseudopotential strength for first ion, spin component:           1
-44.862  -0.000  -0.000   7.572   0.000   0.000  -0.000  -0.000
 -0.000 -44.862   0.000   0.000   7.572  -0.000  -0.000  -0.000
 -0.000   0.000 -44.862   0.000  -0.000   7.572  -0.000  -0.000
  7.572   0.000   0.000   5.637   0.000  -0.000   0.000   0.000
  0.000   7.572  -0.000   0.000   5.637  -0.000   0.000   0.000
  0.000  -0.000   7.572  -0.000  -0.000   5.637   0.000   0.000
 -0.000  -0.000  -0.000   0.000   0.000   0.000  -1.984   0.000
 -0.000  -0.000  -0.000   0.000   0.000   0.000   0.000  -1.984
  0.000  -0.000  -0.000  -0.000   0.000  -0.000  -0.000  -0.000
 -0.000  -0.000  -0.000   0.000   0.000   0.000  -0.000  -0.000
  0.000  -0.000   0.000  -0.000   0.000   0.000  -0.000   0.000
 -0.000  -0.000  -0.000   0.000   0.000   0.000  -2.498   0.000
 -0.000  -0.000  -0.000   0.000   0.000   0.000   0.000  -2.498
  0.000  -0.000   0.000  -0.000   0.000  -0.000  -0.000  -0.000
 -0.000  -0.000  -0.000   0.000   0.000   0.000  -0.000  -0.000
  0.000  -0.000   0.000  -0.000   0.000   0.000  -0.000   0.000
  0.000   0.000   0.000   0.000   0.000  -0.000   0.000   0.000
  0.000   0.000  -0.000   0.000   0.000   0.000   0.000   0.000
 pseudopotential strength for first ion, spin component:           2
-42.898  -0.000   0.000   6.742   0.000  -0.000  -0.000  -0.000
 -0.000 -42.898   0.000   0.000   6.742  -0.000  -0.000  -0.000
  0.000   0.000 -42.898  -0.000  -0.000   6.742  -0.000  -0.000
  6.742   0.000  -0.000   5.864   0.000  -0.000   0.000   0.000
  0.000   6.742  -0.000   0.000   5.864  -0.000   0.000   0.000
 -0.000  -0.000   6.742  -0.000  -0.000   5.864   0.000   0.000
 -0.000  -0.000  -0.000   0.000   0.000   0.000  -0.466   0.000
 -0.000  -0.000  -0.000   0.000   0.000   0.000   0.000  -0.466
  0.000  -0.000   0.000  -0.000   0.000  -0.000  -0.000  -0.000
 -0.000  -0.000  -0.000   0.000   0.000   0.000  -0.000  -0.000
  0.000  -0.000   0.000  -0.000   0.000   0.000  -0.000   0.000
 -0.000  -0.000  -0.000   0.000   0.000   0.000  -1.006   0.000
 -0.000  -0.000  -0.000   0.000   0.000   0.000   0.000  -1.006
  0.000  -0.000   0.000  -0.000   0.000  -0.000  -0.000  -0.000
 -0.000  -0.000  -0.000   0.000   0.000   0.000  -0.000  -0.000
  0.000  -0.000   0.000  -0.000   0.000   0.000  -0.000   0.000
  0.000   0.000   0.000   0.000   0.000   0.000  -0.000   0.000
  0.000   0.000  -0.000   0.000   0.000   0.000  -0.000   0.000
 total augmentation occupancy for first ion, spin component:           1
  1.992   0.000   0.000  -0.027  -0.000  -0.000   0.000   0.000   0.000   0.000  -0.000   0.000   0.000   0.000   0.000   0.000
  0.000   1.992   0.000   0.000  -0.027  -0.000   0.000   0.000   0.000   0.000  -0.000   0.000   0.000   0.000   0.000   0.000
  0.000   0.000   1.992   0.000   0.000  -0.027   0.000   0.000   0.000   0.000  -0.000   0.000   0.000  -0.000   0.000   0.000
 -0.027  -0.000   0.000   0.202  -0.000  -0.000  -0.000  -0.000  -0.000  -0.000   0.000  -0.000  -0.000   0.000   0.000   0.000
 -0.000  -0.027   0.000  -0.000   0.202  -0.000  -0.000  -0.000   0.000  -0.000   0.000  -0.000  -0.000   0.000   0.000   0.000
 -0.000  -0.000  -0.027  -0.000  -0.000   0.202  -0.000  -0.000  -0.000  -0.000   0.000   0.000   0.000  -0.000   0.000   0.000
  0.000   0.000   0.000   0.000  -0.000  -0.000   2.146   0.000  -0.000   0.000   0.000  -1.204   0.000   0.000   0.000  -0.000
  0.000   0.000   0.000   0.000   0.000  -0.000   0.000   2.146  -0.000  -0.000   0.000  -0.000  -1.204   0.000  -0.000   0.000
 -0.000   0.000  -0.000  -0.000   0.000  -0.000  -0.000  -0.000   3.422  -0.000   0.000  -0.000  -0.000  -2.191  -0.000  -0.000
  0.000   0.000   0.000   0.000   0.000   0.000  -0.000  -0.000  -0.000   2.146   0.000  -0.000   0.000  -0.000  -1.204  -0.000
 -0.000   0.000   0.000   0.000  -0.000   0.000   0.000  -0.000   0.000  -0.000   3.422  -0.000   0.000   0.000   0.000  -2.191
  0.000   0.000   0.000  -0.000  -0.000  -0.000  -1.204  -0.000  -0.000  -0.000  -0.000   1.634   0.000  -0.000   0.000   0.000
  0.000   0.000   0.000  -0.000  -0.000   0.000   0.000  -1.204   0.000  -0.000   0.000   0.000   1.634   0.000   0.000   0.000
  0.000   0.000   0.000  -0.000   0.000   0.000   0.000   0.000  -2.191   0.000   0.000  -0.000   0.000   2.226   0.000   0.000
  0.000   0.000   0.000   0.000  -0.000  -0.000   0.000  -0.000   0.000  -1.204   0.000   0.000   0.000   0.000   1.634  -0.000
  0.000   0.000   0.000   0.000   0.000   0.000  -0.000  -0.000   0.000   0.000  -2.191   0.000  -0.000   0.000   0.000   2.226
 -0.000  -0.000   0.000   0.000  -0.000  -0.000   0.000   0.000  -0.000  -0.000  -0.000  -0.000   0.000   0.000  -0.000  -0.000
  0.000   0.000   0.000  -0.000  -0.000  -0.000  -0.000  -0.000   0.000   0.000   0.000  -0.000   0.000   0.000   0.000   0.000
 total augmentation occupancy for first ion, spin component:           2
 -0.002   0.000   0.000  -0.009   0.000   0.000   0.000   0.000  -0.000   0.000   0.000   0.000   0.000  -0.000   0.000   0.000
  0.000  -0.002   0.000   0.000  -0.009  -0.000   0.000   0.000   0.000   0.000   0.000   0.000   0.000   0.000   0.000   0.000
  0.000   0.000  -0.002   0.000   0.000  -0.009   0.000   0.000   0.000   0.000   0.000   0.000   0.000   0.000   0.000  -0.000
 -0.009  -0.000  -0.000  -0.018   0.000  -0.000  -0.000   0.000  -0.000   0.000   0.000   0.000   0.000   0.000   0.000   0.000
 -0.000  -0.009  -0.000  -0.000  -0.018  -0.000   0.000   0.000   0.000  -0.000   0.000  -0.000   0.000   0.000   0.000   0.000
  0.000   0.000  -0.009  -0.000   0.000  -0.018   0.000   0.000  -0.000   0.000   0.000  -0.000   0.000   0.000   0.000   0.000
  0.000   0.000   0.000   0.000   0.000  -0.000   1.738  -0.000   0.000   0.000  -0.000  -0.652   0.000   0.000  -0.000  -0.000
  0.000   0.000   0.000  -0.000   0.000   0.000  -0.000   1.738  -0.000  -0.000   0.000   0.000  -0.652  -0.000  -0.000   0.000
 -0.000   0.000   0.000   0.000   0.000  -0.000  -0.000  -0.000   2.841  -0.000   0.000  -0.000   0.000  -1.178  -0.000   0.000
  0.000   0.000   0.000   0.000  -0.000  -0.000   0.000  -0.000  -0.000   1.738  -0.000   0.000   0.000   0.000  -0.652   0.000
  0.000  -0.000   0.000   0.000   0.000   0.000  -0.000   0.000   0.000  -0.000   2.841   0.000  -0.000   0.000  -0.000  -1.178
  0.000   0.000   0.000  -0.000   0.000  -0.000  -0.652   0.000  -0.000   0.000   0.000  -0.008  -0.000   0.000  -0.000  -0.000
  0.000   0.000   0.000  -0.000   0.000   0.000  -0.000  -0.652   0.000   0.000   0.000   0.000  -0.008  -0.000  -0.000  -0.000
 -0.000   0.000  -0.000   0.000   0.000  -0.000   0.000   0.000  -1.178   0.000   0.000  -0.000   0.000   0.252   0.000   0.000
  0.000   0.000   0.000   0.000  -0.000   0.000  -0.000  -0.000  -0.000  -0.652  -0.000  -0.000  -0.000   0.000  -0.008   0.000
 -0.000  -0.000  -0.000   0.000   0.000   0.000   0.000  -0.000   0.000   0.000  -1.178  -0.000  -0.000  -0.000   0.000   0.252
  0.000   0.000   0.000  -0.000   0.000   0.000  -0.000   0.000  -0.000   0.000  -0.000  -0.000   0.000   0.000   0.000   0.000
  0.000   0.000   0.000   0.000   0.000   0.000  -0.000  -0.000  -0.000  -0.000   0.000   0.000   0.000   0.000  -0.000   0.000


------------------------ aborting loop because EDIFF is reached ----------------------------------------


 


 total charge     
 
# of ion       s       p       d       tot
------------------------------------------
    1        0.385   6.379   6.073  12.837
    2        0.385   6.379   6.073  12.837
--------------------------------------------------
tot          0.771  12.757  12.146  25.674
 


 magnetization (x)
 
# of ion       s       p       d       tot
------------------------------------------
    1       -0.007  -0.038   2.283   2.237
    2       -0.007  -0.038   2.283   2.237
--------------------------------------------------
tot         -0.014  -0.077   4.566   4.475
 
    CHARGE:  cpu time    0.0295: real time    0.0296
    FORLOC:  cpu time    0.0002: real time    0.0002
    FORNL :  cpu time    0.1755: real time    0.1760
    STRESS:  cpu time    0.5254: real time    0.5267
    FORCOR:  cpu time    0.0108: real time    0.0108
    FORHAR:  cpu time    0.0012: real time    0.0012
    MIXING:  cpu time    0.0007: real time    0.0007
    OFIELD:  cpu time    0.0001: real time    0.0001

  FORCE on cell =-STRESS in cart. coord.  units (eV):
  Direction    XX          YY          ZZ          XY          YZ          ZX
  --------------------------------------------------------------------------------------
  Alpha Z   218.87049   218.87049   218.87049
  Ewald   -1205.52018 -1205.52018 -1205.52018    -0.00000    -0.00000    -0.00000
  Hartree   363.22272   363.22272   363.22272    -0.00000    -0.00000    -0.00000
  E(xc)    -179.75773  -179.75773  -179.75773     0.00000    -0.00000    -0.00000
  Local     289.63721   289.63721   289.63721    -0.00000     0.00000    -0.00000
  n-local   -60.05166   -54.06438   -50.37906     2.79476    -1.38442     0.47458
  augment   285.42686   285.42686   285.42686    -0.00000     0.00000     0.00000
  Kinetic   284.03495   282.49260   281.61328     3.18022    -0.75414     0.00654
  Fock        0.00000     0.00000     0.00000     0.00000     0.00000     0.00000
  -------------------------------------------------------------------------------------
  Total      -0.23871    -0.23871    -0.23871    -0.00000    -0.00000    -0.00000
  in kB     -16.69564   -16.69564   -16.69564    -0.00000    -0.00000    -0.00000
  external pressure =      -16.70 kB  Pullay stress =        0.00 kB


 VOLUME and BASIS-vectors are now :
 -----------------------------------------------------------------------------
  energy-cutoff  :      920.00
  volume of cell :       22.91
      direct lattice vectors                 reciprocal lattice vectors
     2.840052000  0.000000000  0.000000000     0.352106229  0.000000000  0.000000000
     0.000000000  2.840052000  0.000000000     0.000000000  0.352106229  0.000000000
     0.000000000  0.000000000  2.840052000     0.000000000  0.000000000  0.352106229

  length of vectors
     2.840052000  2.840052000  2.840052000     0.352106229  0.352106229  0.352106229


 FORCES acting on ions
    electron-ion (+dipol)            ewald-force                    non-local-force                 convergence-correction
 -----------------------------------------------------------------------------------------------
   -.214E-13 -.301E-13 -.601E-13   -.529E-15 -.103E-14 -.897E-14   0.323E-26 0.000E+00 0.000E+00   -.391E-13 -.598E-14 -.628E-14
   0.833E-12 0.747E-11 0.864E-11   0.472E-14 0.447E-14 0.926E-14   0.000E+00 0.000E+00 0.000E+00   -.468E-13 0.430E-14 -.987E-13
 -----------------------------------------------------------------------------------------------
   0.812E-12 0.744E-11 0.858E-11   0.419E-14 0.343E-14 0.284E-15   0.323E-26 0.000E+00 0.000E+00   -.860E-13 -.168E-14 -.105E-12
 
 
 POSITION                                       TOTAL-FORCE (eV/Angst)
 -----------------------------------------------------------------------------------
      0.00000      0.00000      0.00000         0.000000      0.000000     -0.000000
      1.42003      1.42003      1.42003        -0.000000     -0.000000      0.000000
 -----------------------------------------------------------------------------------
    total drift:                                0.000000      0.000000      0.000000


--------------------------------------------------------------------------------------------------------



  FREE ENERGIE OF THE ION-ELECTRON SYSTEM (eV)
  ---------------------------------------------------
  free  energy   TOTEN  =       -16.51258851 eV

  energy  without entropy=      -16.51258851  energy(sigma->0) =      -16.51258851
 


--------------------------------------------------------------------------------------------------------


    POTLOK:  cpu time    0.0171: real time    0.0171


--------------------------------------------------------------------------------------------------------


     LOOP+:  cpu time   17.7090: real time   17.7740
    4ORBIT:  cpu time    0.0000: real time    0.0000
 


 total charge     
 
# of ion       s       p       d       tot
------------------------------------------
    1        0.385   6.379   6.073  12.837
    2        0.385   6.379   6.073  12.837
--------------------------------------------------
tot          0.771  12.757  12.146  25.674
 


 magnetization (x)
 
# of ion       s       p       d       tot
------------------------------------------
    1       -0.007  -0.038   2.283   2.237
    2       -0.007  -0.038   2.283   2.237
--------------------------------------------------
tot         -0.014  -0.077   4.566   4.475
 
 BZINTS: Fermi energy:  9.607847; 28.000000 electrons
         Band energy:-399.482352;  BLOECHL correction: -0.030644

 total amount of memory used by VASP MPI-rank0    35390. kBytes
=======================================================================

   base      :      30000. kBytes
   nonlr-proj:        945. kBytes
   fftplans  :        478. kBytes
   grid      :       1141. kBytes
   one-center:         31. kBytes
   wavefun   :       2795. kBytes
 
  
  
 General timing and accounting informations for this job:
 ========================================================
  
                  Total CPU time used (sec):       18.748
                            User time (sec):       18.507
                          System time (sec):        0.241
                         Elapsed time (sec):       18.847
  
                   Maximum memory used (kb):       59284.
                   Average memory used (kb):           0.
  
                          Minor page faults:        15842
                          Major page faults:            0
                 Voluntary context switches:          157
