=========================================
SLURM_JOB_ID = 63456894
SLURM_JOB_NODELIST = lnode31
SLURM_GPUS = 
SLURM_CPUS_ON_NODE = 8
SLURM_JOB_PARTITION = lenovo
SLURM_TASK_PID = 2323741
CUDA_VISIBLE_DEVICES = 
==========================================
 running on    8 total cores
 distrk:  each k-point on    8 cores,    1 groups
 distr:  one band on    4 cores,    2 groups
 using from now: INCAR     
 vasp.5.4.4.18Apr17-6-g9f103f2a35 (build Apr 28 2018 00:24:27) complex          
  
 POSCAR found type information on POSCAR  Eu O 
 POSCAR found :  2 types and       2 ions
 scaLAPACK will be used

 ----------------------------------------------------------------------------- 
|                                                                             |
|  ADVICE TO THIS USER RUNNING 'VASP/VAMP'   (HEAR YOUR MASTER'S VOICE ...):  |
|                                                                             |
|      You have a (more or less) 'small supercell' and for smaller cells      |
|      it is recommended  to use the reciprocal-space projection scheme!      |
|      The real space optimization is not  efficient for small cells and it   |
|      is also less accurate ...                                              |
|      Therefore set LREAL=.FALSE. in the  INCAR file                         |
|                                                                             |
 ----------------------------------------------------------------------------- 

 LDA part: xc-table for Pade appr. of Perdew
 POSCAR, INCAR and KPOINTS ok, starting setup
 FFT: planning ...
 WAVECAR not read
 entering main loop
       N       E                     dE             d eps       ncg     rms          rms(c)
DAV:   1     0.166125076037E+03    0.16613E+03   -0.11563E+04  8356   0.306E+03
DAV:   2    -0.968443747804E+00   -0.16709E+03   -0.14548E+03  7432   0.321E+02
DAV:   3    -0.194600151496E+02   -0.18492E+02   -0.17761E+02  7776   0.113E+02
DAV:   4    -0.204623055584E+02   -0.10023E+01   -0.96740E+00 10828   0.235E+01
DAV:   5    -0.204980076809E+02   -0.35702E-01   -0.35436E-01  9528   0.348E+00    0.185E+01
DAV:   6    -0.257362306122E+02   -0.52382E+01   -0.10095E+02 10284   0.109E+02    0.275E+01
DAV:   7    -0.209045491633E+02    0.48317E+01   -0.23842E+01  8688   0.832E+01    0.101E+01
DAV:   8    -0.209350388499E+02   -0.30490E-01   -0.13326E+00  9808   0.101E+01    0.486E+00
DAV:   9    -0.209204937289E+02    0.14545E-01   -0.16475E+00 10796   0.112E+01    0.266E+00
DAV:  10    -0.208636697972E+02    0.56824E-01   -0.21958E-01  9616   0.426E+00    0.976E-01
DAV:  11    -0.208595971383E+02    0.40727E-02   -0.14203E-02  9536   0.119E+00    0.804E-01
DAV:  12    -0.208593277803E+02    0.26936E-03   -0.24930E-02 10280   0.148E+00    0.360E-01
DAV:  13    -0.208596493347E+02   -0.32155E-03   -0.20379E-03  9724   0.292E-01    0.203E-01
DAV:  14    -0.208597501506E+02   -0.10082E-03   -0.15175E-03 10212   0.374E-01    0.827E-02
DAV:  15    -0.208596860985E+02    0.64052E-04   -0.20023E-04  9820   0.118E-01    0.434E-02
DAV:  16    -0.208597060425E+02   -0.19944E-04   -0.22717E-05 10176   0.400E-02    0.141E-02
DAV:  17    -0.208597075181E+02   -0.14756E-05   -0.28919E-06 11320   0.123E-02    0.541E-03
DAV:  18    -0.208597078378E+02   -0.31964E-06   -0.64069E-07  8664   0.578E-03    0.548E-03
DAV:  19    -0.208597061751E+02    0.16627E-05   -0.19242E-07  7056   0.485E-03    0.189E-03
DAV:  20    -0.208597074758E+02   -0.13007E-05   -0.91247E-08  4716   0.307E-03    0.469E-04
DAV:  21    -0.208597072072E+02    0.26860E-06   -0.34965E-08  3920   0.175E-03    0.254E-04
DAV:  22    -0.208597071078E+02    0.99371E-07   -0.13747E-08  3736   0.110E-03
   1 F= -.20859707E+02 E0= -.20859707E+02  d E =0.000000E+00  mag=     6.9930
