unknown system                          
   1.00000000000000     
     0.000000    2.743592    0.000000
    -4.416989    1.371796   -1.676555
    -2.740434    0.000000    2.740434
   Fe
     4
Direct
  0.499657  0.000686  0.499657
  0.750343  0.499314  0.250343
  0.250343  0.499314  0.750343
  0.999657  0.000686  0.999657
 
   40   80   60
 0.16181019053E+04 0.33679859848E+04 0.45510202962E+03 0.64409931461E+03 0.86190256956E+03
 0.73564457307E+03 0.51334762074E+03 0.32711308737E+03 0.20116225495E+03 0.12332483797E+03
 0.77096076914E+02 0.50040961060E+02 0.34207275292E+02 0.24846555285E+02 0.18974887107E+02
 0.15741608562E+02 0.13616537387E+02 0.12294374449E+02 0.11522533414E+02 0.11125629982E+02
 0.11003988357E+02 0.11125629982E+02 0.11522533414E+02 0.12294374449E+02 0.13616537387E+02
 0.15741608562E+02 0.18974887107E+02 0.24846555285E+02 0.34207275292E+02 0.50040961060E+02
 0.77096076914E+02 0.12332483797E+03 0.20116225495E+03 0.32711308737E+03 0.51334762074E+03
 0.73564457307E+03 0.86190256956E+03 0.64409931461E+03 0.45510202962E+03 0.33679859848E+04
 0.40497149143E+04 0.12822607044E+04 0.39706036612E+03 0.76533348565E+03 0.84398807783E+03
 0.66606716489E+03 0.45015088949E+03 0.28353877866E+03 0.17419052110E+03 0.10738707807E+03
 0.67841481960E+02 0.44675529330E+02 0.31069558799E+02 0.22979975079E+02 0.17946734498E+02
 0.15057457844E+02 0.13186013744E+02 0.12038276847E+02 0.11382770269E+02 0.11065725470E+02
 0.11006234520E+02 0.11188599218E+02 0.11660415669E+02 0.12537944927E+02 0.14013945238E+02
 0.16355231300E+02 0.20232070195E+02 0.26510530853E+02 0.36980786768E+02 0.54717921787E+02
 0.84995821210E+02 0.13651494334E+03 0.22248137026E+03 0.35919207120E+03 0.55460463712E+03
 0.77054446653E+03 0.85295737803E+03 0.58141065063E+03 0.49040889533E+03 0.28178233916E+04
 0.75928516576E+03 0.38348589511E+03 0.63258177956E+03 0.84655357401E+03 0.76817775390E+03
 0.56426878893E+03 0.37219897405E+03 0.23359012386E+03 0.14448494362E+03 0.90258299220E+02
 0.58053599003E+02 0.39061105662E+02 0.27808068247E+02 0.21048953415E+02 0.16853391112E+02
 0.14348061929E+02 0.12748160046E+02 0.11781073603E+02 0.11242757265E+02 0.11004183565E+02
 0.11004183565E+02 0.11242757265E+02 0.11781073603E+02 0.12748160046E+02 0.14348061929E+02
 0.16853391112E+02 0.21048953415E+02 0.27808068247E+02 0.39061105662E+02 0.58053599003E+02
 0.90258299220E+02 0.14448494362E+03 0.23359012386E+03 0.37219897405E+03 0.56426878893E+03
 0.76817775390E+03 0.84655357401E+03 0.63258177956E+03 0.38348589511E+03 0.75928516576E+03
 0.55173716130E+03 0.68925576740E+03 0.83624602894E+03 0.80853092826E+03 0.64143804498E+03
 0.44854146404E+03 0.29227950933E+03 0.18439261706E+03 0.11572247077E+03 0.73790516967E+02
 0.48662260642E+02 0.33668417494E+02 0.24665688251E+02 0.18938698864E+02 0.15764020318E+02
 0.13655779706E+02 0.12327193795E+02 0.11535812825E+02 0.11109030664E+02 0.10943653170E+02
 0.10997634948E+02 0.11284830061E+02 0.11876847977E+02 0.12910700019E+02 0.14594987157E+02
 0.17199972323E+02 0.21591650750E+02 0.28603003654E+02 0.40206750258E+02 0.59613165071E+02
 0.92116631460E+02 0.14596495516E+03 0.23265311986E+03 0.36429168281E+03 0.54276661927E+03
 0.73473802752E+03 0.84657062004E+03 0.77747582165E+03 0.60479935708E+03 0.53214817411E+03
 0.87166302166E+03 0.87868121485E+03 0.81680412591E+03 0.67199712971E+03 0.49530379257E+03
 0.33786586462E+03 0.22023678618E+03 0.14086425672E+03 0.90348285926E+02 0.59206760841E+02
 0.40287532118E+02 0.28816550666E+02 0.21810733221E+02 0.17371830505E+02 0.14737984712E+02
 0.13014999962E+02 0.11942024420E+02 0.11312548159E+02 0.10986777368E+02 0.10886487382E+02
 0.10986777368E+02 0.11312548159E+02 0.11942024420E+02 0.13014999962E+02 0.14737984712E+02
 0.17371830505E+02 0.21810733221E+02 0.28816550666E+02 0.40287532118E+02 0.59206760841E+02
 0.90348285926E+02 0.14086425672E+03 0.22023678618E+03 0.33786586462E+03 0.49530379257E+03
 0.67199712971E+03 0.81680412591E+03 0.87868121485E+03 0.87166302166E+03 0.85997942699E+03
 0.87689505883E+03 0.79013647764E+03 0.65800100136E+03 0.50440759955E+03 0.36015525491E+03
 0.24442686843E+03 0.16113065500E+03 0.10528882750E+03 0.69472285901E+02 0.47073863673E+02
 0.33226035758E+02 0.24668392549E+02 0.19065856324E+02 0.15939832297E+02 0.13819313583E+02
 0.12449740349E+02 0.11605463009E+02 0.11118268808E+02 0.10880049915E+02 0.10835078955E+02
 0.10972641825E+02 0.11325323618E+02 0.11973915503E+02 0.13055941177E+02 0.14769888647E+02
 0.17361682159E+02 0.21692194388E+02 0.28438012497E+02 0.39318462656E+02 0.56941077460E+02
 0.85327184942E+02 0.13023787335E+03 0.19891755036E+03 0.29818033245E+03 0.42951946998E+03
 0.58185285357E+03 0.72866619666E+03 0.83990033757E+03 0.90115355120E+03 0.91311910677E+03
 0.69412730277E+03 0.59522921836E+03 0.47457075340E+03 0.35460196348E+03 0.25159380964E+03
 0.17229571673E+03 0.11588241733E+03 0.77881137790E+02 0.53178263819E+02 0.37450922492E+02
 0.27528366983E+02 0.21259472058E+02 0.17178358886E+02 0.14693887972E+02 0.13034620675E+02
 0.11973433850E+02 0.11324644725E+02 0.10957414251E+02 0.10792195989E+02 0.10792195989E+02
 0.10957414251E+02 0.11324644725E+02 0.11973433850E+02 0.13034620675E+02 0.14693887972E+02
 0.17178358886E+02 0.21259472058E+02 0.27528366983E+02 0.37450922492E+02 0.53178263819E+02
 0.77881137790E+02 0.11588241733E+03 0.17229571673E+03 0.25159380964E+03 0.35460196348E+03
 0.47457075340E+03 0.59522921836E+03 0.69412730277E+03 0.75004675555E+03 0.75004675555E+03
 0.48833892222E+03 0.41000561122E+03 0.32243841997E+03 0.24027397439E+03 0.17197634608E+03
 0.12001228304E+03 0.82939551926E+02 0.57666710667E+02 0.40951633619E+02 0.30089746375E+02
 0.23078734301E+02 0.18355188515E+02 0.15575442316E+02 0.13659050449E+02 0.12394256963E+02
 0.11590450811E+02 0.11102248249E+02 0.10832657434E+02 0.10726271395E+02 0.10761142616E+02
 0.10944458999E+02 0.11314039255E+02 0.11944988589E+02 0.12958024056E+02 0.14522585647E+02
 0.16844581728E+02 0.20567440930E+02 0.26201711447E+02 0.34930909634E+02 0.48424524525E+02
 0.69039471790E+02 0.99790689463E+02 0.14398006027E+03 0.20411689624E+03 0.27999532262E+03
 0.36633605175E+03 0.45141829173E+03 0.51852183696E+03 0.55106958986E+03 0.53994071070E+03
 0.32470266373E+03 0.27075964403E+03 0.21315131203E+03 0.16036939017E+03 0.11688087218E+03
 0.83709061854E+02 0.59789633448E+02 0.43215825084E+02 0.32034214441E+02 0.24603291555E+02
 0.19690481615E+02 0.16392948234E+02 0.14275645491E+02 0.12837712209E+02 0.11895726231E+02
 0.11298589034E+02 0.10938005507E+02 0.10745649253E+02 0.10685260069E+02 0.10745649253E+02
 0.10938005507E+02 0.11298589034E+02 0.11895726231E+02 0.12837712209E+02 0.14275645491E+02
 0.16392948234E+02 0.19690481615E+02 0.24603291555E+02 0.32034214441E+02 0.43215825084E+02
 0.59789633448E+02 0.83709061854E+02 0.11688087218E+03 0.16036939017E+03 0.21315131203E+03
 0.27075964403E+03 0.32470266373E+03 0.36384386120E+03 0.37823941772E+03 0.36384386120E+03
 0.21123141678E+03 0.17637112786E+03 0.14013786065E+03 0.10724727385E+03 0.80100625813E+02
 0.59198013572E+02 0.43900062999E+02 0.33100290439E+02 0.25654533650E+02 0.20588008144E+02
 0.17078809518E+02 0.14833815736E+02 0.13268281818E+02 0.12215771974E+02 0.11528091780E+02
 0.11091754622E+02 0.10830081913E+02 0.10697527141E+02 0.10672038140E+02 0.10749511131E+02
 0.10942569716E+02 0.11284115950E+02 0.11834313416E+02 0.12687867016E+02 0.13976628891E+02
 0.15861097271E+02 0.18504818562E+02 0.22875838962E+02 0.29024289893E+02 0.38011868620E+02
 0.50912942753E+02 0.68891021809E+02 0.92888772748E+02 0.12307205911E+03 0.15807749292E+03
 0.19435156989E+03 0.22615527630E+03 0.24683111672E+03 0.25126245569E+03 0.23827320906E+03
 0.13742526737E+03 0.11551922923E+03 0.93143043768E+02 0.72881896627E+02 0.56046800905E+02
 0.42919024376E+02 0.33146745522E+02 0.26107158029E+02 0.21143595053E+02 0.17577871893E+02
 0.15286997873E+02 0.13649715327E+02 0.12523158768E+02 0.11769567279E+02 0.11276255742E+02
 0.10962276073E+02 0.10776098300E+02 0.10689143379E+02 0.10689143379E+02 0.10776098300E+02
 0.10962276073E+02 0.11276255742E+02 0.11769567279E+02 0.12523158768E+02 0.13649715327E+02
 0.15286997873E+02 0.17577871893E+02 0.21143595053E+02 0.26107158029E+02 0.33146745522E+02
 0.42919024376E+02 0.56046800905E+02 0.72881896627E+02 0.93143043768E+02 0.11551922923E+03
 0.13742526737E+03 0.15526503725E+03 0.16536649165E+03 0.16536649165E+03 0.15526503725E+03
 0.90828140027E+02 0.77185351098E+02 0.63413096207E+02 0.50928761818E+02 0.40464144181E+02
 0.32186915337E+02 0.25912290028E+02 0.21298434898E+02 0.17852010064E+02 0.15598194460E+02
 0.13949743125E+02 0.12790984888E+02 0.12000517505E+02 0.11472066262E+02 0.11124417504E+02
 0.10902601253E+02 0.10773767866E+02 0.10721101927E+02 0.10738499050E+02 0.10827916724E+02
 0.11000282696E+02 0.11279661177E+02 0.11709251631E+02 0.12356878414E+02 0.13316905303E+02
 0.14705073206E+02 0.16643215187E+02 0.19233111844E+02 0.23421436831E+02 0.28818650007E+02
 0.36058222811E+02 0.45422536896E+02 0.56949273746E+02 0.70209907019E+02 0.84136891068E+02
 0.96991551445E+02 0.10664939190E+03 0.11119965881E+03 0.10965343452E+03 0.10235375156E+03
 0.61733006486E+02 0.53217674777E+02 0.44691924167E+02 0.36940752742E+02 0.30376783543E+02
 0.25108611436E+02 0.21041656924E+02 0.17881062726E+02 0.15742864513E+02 0.14143545149E+02
 0.12996087753E+02 0.12199648701E+02 0.11659280182E+02 0.11297526107E+02 0.11058479265E+02
 0.10906387300E+02 0.10821259993E+02 0.10793758748E+02 0.10821259993E+02 0.10906387300E+02
 0.11058479265E+02 0.11297526107E+02 0.11659280182E+02 0.12199648701E+02 0.12996087753E+02
 0.14143545149E+02 0.15742864513E+02 0.17881062726E+02 0.21041656924E+02 0.25108611436E+02
 0.30376783543E+02 0.36940752742E+02 0.44691924167E+02 0.53217674777E+02 0.61733006486E+02
 0.69134533322E+02 0.74217338828E+02 0.76033256123E+02 0.74217338828E+02 0.69134533322E+02
 0.43557880222E+02 0.38193993688E+02 0.32852872827E+02 0.27977048371E+02 0.23806243087E+02
 0.20092974041E+02 0.17662751338E+02 0.15709905421E+02 0.14215593800E+02 0.13121307575E+02
 0.12349245460E+02 0.11819686065E+02 0.11462786670E+02 0.11224475861E+02 0.11067488119E+02
 0.10969129070E+02 0.10917440098E+02 0.10907319751E+02 0.10937890830E+02 0.11011930264E+02
 0.11137535394E+02 0.11331516327E+02 0.11623435172E+02 0.12058845903E+02 0.12700104392E+02
 0.13623085175E+02 0.14908403559E+02 0.16626663966E+02 0.18819107080E+02 0.22011872823E+02
 0.25796588262E+02 0.30337389451E+02 0.35487719370E+02 0.40908260679E+02 0.46060080701E+02
 0.50267719873E+02 0.52874015764E+02 0.53420256569E+02 0.51806725546E+02 0.48325104978E+02
 0.32105393485E+02 0.28679235677E+02 0.25281449806E+02 0.22166481590E+02 0.19288441149E+02
 0.17213471754E+02 0.15502093882E+02 0.14160405967E+02 0.13156648516E+02 0.12436734403E+02
 0.11938689777E+02 0.11603568245E+02 0.11382069770E+02 0.11237259400E+02 0.11144325074E+02
 0.11088474289E+02 0.11062077104E+02 0.11062077104E+02 0.11088474289E+02 0.11144325074E+02
 0.11237259400E+02 0.11382069770E+02 0.11603568245E+02 0.11938689777E+02 0.12436734403E+02
 0.13156648516E+02 0.14160405967E+02 0.15502093882E+02 0.17213471754E+02 0.19288441149E+02
 0.22166481590E+02 0.25281449806E+02 0.28679235677E+02 0.32105393485E+02 0.35205698140E+02
 0.37578010595E+02 0.38869615527E+02 0.38869615527E+02 0.37578010595E+02 0.35205698140E+02
 0.24781248727E+02 0.22557792426E+02 0.20128937249E+02 0.18255759028E+02 0.16569266562E+02
 0.15136495238E+02 0.13982858525E+02 0.13099713454E+02 0.12455385058E+02 0.12006454827E+02
 0.11707088541E+02 0.11515437944E+02 0.11397141300E+02 0.11326468131E+02 0.11285818047E+02
 0.11264291441E+02 0.11256002836E+02 0.11258706129E+02 0.11273130846E+02 0.11303208434E+02
 0.11357128426E+02 0.11448931210E+02 0.11600145091E+02 0.11840839298E+02 0.12209393246E+02
 0.12750258130E+02 0.13509052193E+02 0.14524647823E+02 0.15818665161E+02 0.17383962048E+02
 0.19174909154E+02 0.21102813524E+02 0.23677891284E+02 0.25838487357E+02 0.27700630137E+02
 0.29028811089E+02 0.29635997896E+02 0.29430924725E+02 0.28445090912E+02 0.26821777328E+02
 0.19842205472E+02 0.18466891706E+02 0.17081615876E+02 0.15784268072E+02 0.14643929834E+02
 0.13698080392E+02 0.12955758023E+02 0.12404464169E+02 0.12018292079E+02 0.11765284992E+02
 0.11612954083E+02 0.11531749402E+02 0.11496811482E+02 0.11488523636E+02 0.11492365095E+02
 0.11498462211E+02 0.11501114815E+02 0.11498462211E+02 0.11492365095E+02 0.11488523636E+02
 0.11496811482E+02 0.11531749402E+02 0.11612954083E+02 0.11765284992E+02 0.12018292079E+02
 0.12404464169E+02 0.12955758023E+02 0.13698080392E+02 0.14643929834E+02 0.15784268072E+02
 0.17081615876E+02 0.18466891706E+02 0.19842205472E+02 0.21090565716E+02 0.22091567609E+02
 0.23220059710E+02 0.23477306937E+02 0.23220059710E+02 0.22091567609E+02 0.21090565716E+02
 0.16820095385E+02 0.15863486298E+02 0.14924396809E+02 0.14066045415E+02 0.13330269802E+02
 0.12737291898E+02 0.12289099395E+02 0.11974624020E+02 0.11775015661E+02 0.11667907364E+02
 0.11630288318E+02 0.11640163082E+02 0.11677449683E+02 0.11724577996E+02 0.11767090017E+02
 0.11794325059E+02 0.11800088536E+02 0.11783115911E+02 0.11747174684E+02 0.11700767898E+02
 0.11656543495E+02 0.11630596456E+02 0.11641823204E+02 0.11711346488E+02 0.11861817457E+02
 0.12116199392E+02 0.12495548065E+02 0.13015436066E+02 0.13681091334E+02 0.14481988434E+02
 0.15387333649E+02 0.16344283462E+02 0.17280514328E+02 0.18111816484E+02 0.18753933958E+02
 0.19136403543E+02 0.19215215378E+02 0.18981120827E+02 0.18461412960E+02 0.17714706026E+02
 0.14692287589E+02 0.14056895686E+02 0.13449535168E+02 0.12909836762E+02 0.12462856608E+02
 0.12119810470E+02 0.11880759581E+02 0.11737932212E+02 0.11678636499E+02 0.11687253913E+02
 0.11746349201E+02 0.11837303690E+02 0.11940989155E+02 0.12038861230E+02 0.12114553231E+02
 0.12155727540E+02 0.12155727540E+02 0.12114553231E+02 0.12038861230E+02 0.11940989155E+02
 0.11837303690E+02 0.11746349201E+02 0.11687253913E+02 0.11678636499E+02 0.11737932212E+02
 0.11880759581E+02 0.12119810470E+02 0.12462856608E+02 0.12909836762E+02 0.13449535168E+02
 0.14056895686E+02 0.14692287589E+02 0.15303835453E+02 0.15833196766E+02 0.16224099208E+02
 0.16431908947E+02 0.16431908947E+02 0.16224099208E+02 0.15833196766E+02 0.15303835453E+02
 0.13239187433E+02 0.12838836870E+02 0.12469094060E+02 0.12154777068E+02 0.11911483302E+02
 0.11746441296E+02 0.11660216032E+02 0.11648385184E+02 0.11702619913E+02 0.11811068487E+02
 0.11958367512E+02 0.12125843903E+02 0.12292442219E+02 0.12436629888E+02 0.12539106939E+02
 0.12585749588E+02 0.12570015272E+02 0.12494119038E+02 0.12368631126E+02 0.12210616289E+02
 0.12040861156E+02 0.11880957484E+02 0.11750945326E+02 0.11667903213E+02 0.11645437790E+02
 0.11693652416E+02 0.11819010972E+02 0.12023622527E+02 0.12303819842E+02 0.12648372321E+02
 0.13037088184E+02 0.13440736023E+02 0.13823023660E+02 0.14144813164E+02 0.14369988350E+02
 0.14471706173E+02 0.14437441863E+02 0.14271441486E+02 0.13993883949E+02 0.13636992481E+02
 0.12269821899E+02 0.12037669921E+02 0.11836210766E+02 0.11681684305E+02 0.11584958712E+02
 0.11552078564E+02 0.11584958712E+02 0.11681684305E+02 0.11836210766E+02 0.12037669921E+02
 0.12269821899E+02 0.12511310259E+02 0.12737210472E+02 0.12921943936E+02 0.13043104428E+02
 0.13085317150E+02 0.13043104428E+02 0.12921943936E+02 0.12737210472E+02 0.12511310259E+02
 0.12269821899E+02 0.12037669921E+02 0.11836210766E+02 0.11681684305E+02 0.11584958712E+02
 0.11552078564E+02 0.11584958712E+02 0.11681684305E+02 0.11836210766E+02 0.12037669921E+02
 0.12269821899E+02 0.12511310259E+02 0.12737210472E+02 0.12921943936E+02 0.13043104428E+02
 0.13085317150E+02 0.13043104428E+02 0.12921943936E+02 0.12737210472E+02 0.12511310259E+02
 0.11639147115E+02 0.11528287679E+02 0.11448542619E+02 0.11411708931E+02 0.11426782932E+02
 0.11499985439E+02 0.11634487978E+02 0.11829586467E+02 0.12079410091E+02 0.12371615600E+02
 0.12686754525E+02 0.12998989236E+02 0.13278527198E+02 0.13495611561E+02 0.13625328706E+02
 0.13652093702E+02 0.13572628602E+02 0.13396603897E+02 0.13144760812E+02 0.12845044643E+02
 0.12527803378E+02 0.12221264534E+02 0.11948264869E+02 0.11724691795E+02 0.11559513771E+02
 0.11455841645E+02 0.11412302800E+02 0.11424134703E+02 0.11483722439E+02 0.11580674519E+02
 0.11701812725E+02 0.11831545623E+02 0.11952968475E+02 0.12049732735E+02 0.12108375830E+02
 0.12120543500E+02 0.12084483744E+02 0.12005370136E+02 0.11894356880E+02 0.11766649147E+02
 0.11248196771E+02 0.11228718383E+02 0.11242363509E+02 0.11299077715E+02 0.11407542647E+02
 0.11574547771E+02 0.11803816501E+02 0.12094294139E+02 0.12438239636E+02 0.12819757953E+02
 0.13214527050E+02 0.13591314715E+02 0.13915443367E+02 0.14153762806E+02 0.14280135035E+02
 0.14280135035E+02 0.14153762806E+02 0.13915443367E+02 0.13591314715E+02 0.13214527050E+02
 0.12819757953E+02 0.12438239636E+02 0.12094294139E+02 0.11803816501E+02 0.11574547771E+02
 0.11407542647E+02 0.11299077715E+02 0.11242363509E+02 0.11228718383E+02 0.11248196771E+02
 0.11289917049E+02 0.11342430301E+02 0.11394395934E+02 0.11435629808E+02 0.11458359064E+02
 0.11458359064E+02 0.11435629808E+02 0.11394395934E+02 0.11342430301E+02 0.11289917049E+02
 0.11036026371E+02 0.11091079035E+02 0.11183263897E+02 0.11322170930E+02 0.11516800661E+02
 0.11774200397E+02 0.12097483701E+02 0.12483497519E+02 0.12920702399E+02 0.13388018210E+02
 0.13855341632E+02 0.14286117207E+02 0.14641809732E+02 0.14887548202E+02 0.14997786425E+02
 0.14960703110E+02 0.14780299112E+02 0.14475683601E+02 0.14077722871E+02 0.13623856791E+02
 0.13152286247E+02 0.12696791454E+02 0.12283153790E+02 0.11927629175E+02 0.11637340779E+02
 0.11412013722E+02 0.11246288034E+02 0.11131928296E+02 0.11059509224E+02 0.11019465369E+02
 0.11002638884E+02 0.11000579159E+02 0.11005831709E+02 0.11012336785E+02 0.11015909370E+02
 0.11014665219E+02 0.11009238849E+02 0.11002708308E+02 0.11000256480E+02 0.11008697677E+02
 0.10969283065E+02 0.11091422898E+02 0.11256710731E+02 0.11475087701E+02 0.11755807964E+02
 0.12105297921E+02 0.12524510168E+02 0.13006302530E+02 0.13533591295E+02 0.14079036922E+02
 0.14606752953E+02 0.15076039659E+02 0.15446598242E+02 0.15684268568E+02 0.15766174141E+02
 0.15684268568E+02 0.15446598242E+02 0.15076039659E+02 0.14606752953E+02 0.14079036922E+02
 0.13533591295E+02 0.13006302530E+02 0.12524510168E+02 0.12105297921E+02 0.11755807964E+02
 0.11475087701E+02 0.11256710731E+02 0.11091422898E+02 0.10969283065E+02 0.10881067507E+02
 0.10818970754E+02 0.10776799449E+02 0.10749903919E+02 0.10735045814E+02 0.10730305617E+02
 0.10735045814E+02 0.10749903919E+02 0.10776799449E+02 0.10818970754E+02 0.10881067507E+02
 0.11032413161E+02 0.11220669325E+02 0.11459928323E+02 0.11760586630E+02 0.12131507058E+02
 0.12577111275E+02 0.13094294257E+02 0.13669965298E+02 0.14280070951E+02 0.14890686110E+02
 0.15461218883E+02 0.15949176176E+02 0.16315540198E+02 0.16529752899E+02 0.16573538875E+02
 0.16443130063E+02 0.16149717383E+02 0.15718102087E+02 0.15183636658E+02 0.14587745877E+02
 0.13972630748E+02 0.13376067072E+02 0.12827318966E+02 0.12344957280E+02 0.11936846588E+02
 0.11601961156E+02 0.11333267775E+02 0.11120809412E+02 0.10954301121E+02 0.10824865053E+02
 0.10725843421E+02 0.10652855918E+02 0.10603385541E+02 0.10576189775E+02 0.10570770999E+02
 0.10587046834E+02 0.10625281678E+02 0.10686289673E+02 0.10771876268E+02 0.10885420938E+02
 0.11219775286E+02 0.11477440174E+02 0.11795547264E+02 0.12184546902E+02 0.12651743989E+02
 0.13197716285E+02 0.13813147937E+02 0.14477136623E+02 0.15157785476E+02 0.15815231255E+02
 0.16406441546E+02 0.16890548319E+02 0.17233474849E+02 0.17411128882E+02 0.17411128882E+02
 0.17233474849E+02 0.16890548319E+02 0.16406441546E+02 0.15815231255E+02 0.15157785476E+02
 0.14477136623E+02 0.13813147937E+02 0.13197716285E+02 0.12651743989E+02 0.12184546902E+02
 0.11795547264E+02 0.11477440174E+02 0.11219775286E+02 0.11012047821E+02 0.10845761047E+02
 0.10715315833E+02 0.10617893787E+02 0.10552690152E+02 0.10519912981E+02 0.10519912981E+02
 0.10552690152E+02 0.10617893787E+02 0.10715315833E+02 0.10845761047E+02 0.11012047821E+02
 0.11529950313E+02 0.11862848099E+02 0.12266859345E+02 0.12751628674E+02 0.13321269241E+02
 0.13970325760E+02 0.14681056505E+02 0.15423258882E+02 0.16157157167E+02 0.16838738061E+02
 0.17425907643E+02 0.17883553123E+02 0.18186249243E+02 0.18318598835E+02 0.18274311241E+02
 0.18055458879E+02 0.17672750760E+02 0.17146527133E+02 0.16507232055E+02 0.15793970580E+02
 0.15050539081E+02 0.14319596545E+02 0.13636674592E+02 0.13025915046E+02 0.12498712211E+02
 0.12055282304E+02 0.11688213550E+02 0.11386653178E+02 0.11139950895E+02 0.10940043791E+02
 0.10782375643E+02 0.10665553463E+02 0.10590204917E+02 0.10557593635E+02 0.10568487701E+02
 0.10622615400E+02 0.10718850545E+02 0.10856080209E+02 0.11034516098E+02 0.11257027147E+02
 0.11961941741E+02 0.12376809717E+02 0.12874176100E+02 0.13461612254E+02 0.14138051600E+02
 0.14889682825E+02 0.15688381221E+02 0.16493881801E+02 0.17259579536E+02 0.17940233707E+02
 0.18498847456E+02 0.19228400863E+02 0.19539531491E+02 0.19645721734E+02 0.19539531491E+02
 0.19228400863E+02 0.18498847456E+02 0.17940233707E+02 0.17259579536E+02 0.16493881801E+02
 0.15688381221E+02 0.14889682825E+02 0.14138051600E+02 0.13461612254E+02 0.12874176100E+02
 0.12376809717E+02 0.11961941741E+02 0.11618284721E+02 0.11335077476E+02 0.11104762922E+02
 0.10923865775E+02 0.10792352120E+02 0.10712078111E+02 0.10685044064E+02 0.10712078111E+02
 0.10792352120E+02 0.10923865775E+02 0.11104762922E+02 0.11335077476E+02 0.11618284721E+02
 0.12512639981E+02 0.13015274784E+02 0.13611759794E+02 0.14306021917E+02 0.15089688695E+02
 0.15938474913E+02 0.16812577034E+02 0.17661963686E+02 0.18435427551E+02 0.19090298130E+02
 0.19999412000E+02 0.20462931424E+02 0.20728042757E+02 0.20781595276E+02 0.20621599660E+02
 0.20254539729E+02 0.19701310887E+02 0.18779804605E+02 0.18061153964E+02 0.17243652800E+02
 0.16375342319E+02 0.15508104314E+02 0.14687805646E+02 0.13946846173E+02 0.13301313730E+02
 0.12752802736E+02 0.12293297376E+02 0.11910944443E+02 0.11594900103E+02 0.11338227686E+02
 0.11138629448E+02 0.10997419823E+02 0.10917525687E+02 0.10901403801E+02 0.10949622426E+02
 0.11060554832E+02 0.11231275910E+02 0.11459389635E+02 0.11745177517E+02 0.12093223045E+02
 0.13174912256E+02 0.13767896244E+02 0.14465072645E+02 0.15265038649E+02 0.16150173825E+02
 0.17084223587E+02 0.18015463525E+02 0.18885645274E+02 0.19642217163E+02 0.20688881584E+02
 0.21298201440E+02 0.21715898743E+02 0.21928046537E+02 0.21928046537E+02 0.21715898743E+02
 0.21298201440E+02 0.20688881584E+02 0.19642217163E+02 0.18885645274E+02 0.18015463525E+02
 0.17084223587E+02 0.16150173825E+02 0.15265038649E+02 0.14465072645E+02 0.13767896244E+02
 0.13174912256E+02 0.12677184769E+02 0.12262125533E+02 0.11918885097E+02 0.11641343270E+02
 0.11428554960E+02 0.11283230228E+02 0.11209243000E+02 0.11209243000E+02 0.11283230228E+02
 0.11428554960E+02 0.11641343270E+02 0.11918885097E+02 0.12262125533E+02 0.12677184769E+02
 0.13935933448E+02 0.14616024786E+02 0.15408531945E+02 0.16305194209E+02 0.17277767901E+02
 0.18277559337E+02 0.19242000051E+02 0.20107393756E+02 0.21244493883E+02 0.21994993351E+02
 0.22560455668E+02 0.22924667882E+02 0.23080776208E+02 0.23028899072E+02 0.22768371307E+02
 0.22302018973E+02 0.21640801782E+02 0.20811710240E+02 0.19690686105E+02 0.18768330494E+02
 0.17777972815E+02 0.16784597370E+02 0.15845103096E+02 0.14998322218E+02 0.14262059665E+02
 0.13636487385E+02 0.13111180964E+02 0.12672695799E+02 0.12310365784E+02 0.12019205027E+02
 0.11799895350E+02 0.11656651035E+02 0.11594191417E+02 0.11615088396E+02 0.11718446170E+02
 0.11900353815E+02 0.12155962064E+02 0.12482468978E+02 0.12881866713E+02 0.13362151113E+02
 0.14775743805E+02 0.15531309990E+02 0.16404350666E+02 0.17378685761E+02 0.18414997739E+02
 0.19452986444E+02 0.20421674173E+02 0.21602112222E+02 0.22482388627E+02 0.23189767116E+02
 0.23698929794E+02 0.24001136927E+02 0.24100821732E+02 0.24001136927E+02 0.23698929794E+02
 0.23189767116E+02 0.22482388627E+02 0.21602112222E+02 0.20421674173E+02 0.19452986444E+02
 0.18414997739E+02 0.17378685761E+02 0.16404350666E+02 0.15531309990E+02 0.14775743805E+02
 0.14135394236E+02 0.13597816451E+02 0.13148722332E+02 0.12777980690E+02 0.12482205651E+02
 0.12264087109E+02 0.12129504254E+02 0.12083916979E+02 0.12129504254E+02 0.12264087109E+02
 0.12482205651E+02 0.12777980690E+02 0.13148722332E+02 0.13597816451E+02 0.14135394236E+02
 0.15666335022E+02 0.16475440828E+02 0.17403189708E+02 0.18425162874E+02 0.19491675468E+02
 0.20533010148E+02 0.21473342346E+02 0.22694313597E+02 0.23527366004E+02 0.24169779327E+02
 0.24608560785E+02 0.24845764633E+02 0.24892551431E+02 0.24751495462E+02 0.24415062884E+02
 0.23873431807E+02 0.23132515101E+02 0.21884912148E+02 0.21020268978E+02 0.20020297670E+02
 0.18956864956E+02 0.17904927014E+02 0.16925420475E+02 0.16055478303E+02 0.15307639176E+02
 0.14676052156E+02 0.14145874637E+02 0.13702179806E+02 0.13335908094E+02 0.13045890294E+02
 0.12837299994E+02 0.12717864742E+02 0.12693631945E+02 0.12765976007E+02 0.12930941614E+02
 0.13181155114E+02 0.13509620921E+02 0.13913963904E+02 0.14399306280E+02 0.14978145474E+02
 0.16571701839E+02 0.17401539724E+02 0.18347141450E+02 0.19376432575E+02 0.20431250595E+02
 0.21435795922E+02 0.22313617579E+02 0.23520987633E+02 0.24273503575E+02 0.24830228594E+02
 0.25188780808E+02 0.25361202443E+02 0.25361202443E+02 0.25188780808E+02 0.24830228594E+02
 0.24273503575E+02 0.23520987633E+02 0.22313617579E+02 0.21435795922E+02 0.20431250595E+02
 0.19376432575E+02 0.18347141450E+02 0.17401539724E+02 0.16571701839E+02 0.15864588647E+02
 0.15269794540E+02 0.14769925222E+02 0.14349827326E+02 0.14002228338E+02 0.13728925543E+02
 0.13538113664E+02 0.13439523296E+02 0.13439523296E+02 0.13538113664E+02 0.13728925543E+02
 0.14002228338E+02 0.14349827326E+02 0.14769925222E+02 0.15269794540E+02 0.15864588647E+02
 0.17449204783E+02 0.18257419018E+02 0.19175030305E+02 0.20163779910E+02 0.21159889586E+02
 0.22085510816E+02 0.22867834985E+02 0.23993032016E+02 0.24635313538E+02 0.25088631377E+02
 0.25362533640E+02 0.25474056247E+02 0.25437265527E+02 0.25247032633E+02 0.24885221961E+02
 0.24337691572E+02 0.23605560094E+02 0.22498354118E+02 0.21636432446E+02 0.20665648910E+02
 0.19663987179E+02 0.18704277406E+02 0.17838349385E+02 0.17090535157E+02 0.16460589522E+02
 0.15932879412E+02 0.15487537940E+02 0.15109789573E+02 0.14795023883E+02 0.14548858892E+02
 0.14383059192E+02 0.14309410973E+02 0.14334145768E+02 0.14455102989E+02 0.14662706985E+02
 0.14944390766E+02 0.15290765733E+02 0.15701039293E+02 0.16185223314E+02 0.16761576745E+02
 0.18252312691E+02 0.18990417188E+02 0.19829325339E+02 0.20726751566E+02 0.21616723883E+02
 0.22423488851E+02 0.23081584684E+02 0.24054676216E+02 0.24564368949E+02 0.24904108527E+02
 0.25093693186E+02 0.25153791443E+02 0.25093693186E+02 0.24904108527E+02 0.24564368949E+02
 0.24054676216E+02 0.23081584684E+02 0.22423488851E+02 0.21616723883E+02 0.20726751566E+02
 0.19829325339E+02 0.18990417188E+02 0.18252312691E+02 0.17629400144E+02 0.17113016447E+02
 0.16681922269E+02 0.16314069938E+02 0.15995846870E+02 0.15726328477E+02 0.15515877440E+02
 0.15380316817E+02 0.15333343723E+02 0.15380316817E+02 0.15515877440E+02 0.15726328477E+02
 0.15995846870E+02 0.16314069938E+02 0.16681922269E+02 0.17113016447E+02 0.17629400144E+02
 0.18934446796E+02 0.19553044270E+02 0.20263375899E+02 0.21021623637E+02 0.21763084331E+02
 0.22417760556E+02 0.22930196824E+02 0.23695868981E+02 0.24060358167E+02 0.24288162618E+02
 0.24401464765E+02 0.24422863756E+02 0.24357360642E+02 0.24190405354E+02 0.23896059579E+02
 0.23124003722E+02 0.22694144634E+02 0.22105307809E+02 0.21398931226E+02 0.20640211304E+02
 0.19898864412E+02 0.19230609131E+02 0.18665664786E+02 0.18206878158E+02 0.17836368168E+02
 0.17527178367E+02 0.17255589167E+02 0.17010140649E+02 0.16794767633E+02 0.16625517446E+02
 0.16522596102E+02 0.16501155865E+02 0.16564601031E+02 0.16703100314E+02 0.16897898103E+02
 0.17129703137E+02 0.17387756547E+02 0.17675796622E+02 0.18012212341E+02 0.18423756089E+02
 0.19453369404E+02 0.19908379036E+02 0.20447447234E+02 0.21027643788E+02 0.21588533889E+02
 0.22068586601E+02 0.22423712710E+02 0.22640775385E+02 0.23175490832E+02 0.23300041649E+02
 0.23353225256E+02 0.23353225256E+02 0.23300041649E+02 0.23175490832E+02 0.22640775385E+02
 0.22423712710E+02 0.22068586601E+02 0.21588533889E+02 0.21027643788E+02 0.20447447234E+02
 0.19908379036E+02 0.19453369404E+02 0.19098855380E+02 0.18835119602E+02 0.18634633057E+02
 0.18464898945E+02 0.18301321833E+02 0.18135845092E+02 0.17978568617E+02 0.17852075940E+02
 0.17780968185E+02 0.17780968185E+02 0.17852075940E+02 0.17978568617E+02 0.18135845092E+02
 0.18301321833E+02 0.18464898945E+02 0.18634633057E+02 0.18835119602E+02 0.19098855380E+02
 0.19775440652E+02 0.20034186140E+02 0.20372260387E+02 0.20749596752E+02 0.21112192493E+02
 0.21408494845E+02 0.21605844465E+02 0.21700586923E+02 0.21717372375E+02 0.22038723803E+02
 0.22049729247E+02 0.22046490162E+02 0.21709249866E+02 0.21716337824E+02 0.21665074246E+02
 0.21520497481E+02 0.21271278299E+02 0.20936225162E+02 0.20559245329E+02 0.20195320600E+02
 0.19893287433E+02 0.19681707594E+02 0.19562257159E+02 0.19512131997E+02 0.19494116449E+02
 0.19470751726E+02 0.19417771373E+02 0.19332066677E+02 0.19231244075E+02 0.19144998856E+02
 0.19101842088E+02 0.19116669540E+02 0.19184325554E+02 0.19281827202E+02 0.19378328061E+02
 0.19448692839E+02 0.19485058658E+02 0.19501619568E+02 0.19530674194E+02 0.19611405042E+02
 0.19879114459E+02 0.19925038049E+02 0.20049357329E+02 0.20216157927E+02 0.20379028207E+02
 0.20496707172E+02 0.20546959731E+02 0.20533382616E+02 0.20482236704E+02 0.20430358516E+02
 0.20409010162E+02 0.20430358516E+02 0.20482236704E+02 0.20533382616E+02 0.20546959731E+02
 0.20496707172E+02 0.20379028207E+02 0.20216157927E+02 0.20049357329E+02 0.19925038049E+02
 0.19879114459E+02 0.19925038049E+02 0.20049357329E+02 0.20216157927E+02 0.20379028207E+02