=========================================
SLURM_JOB_ID = 30574108
SLURM_JOB_NODELIST = lnode55
SLURM_GPUS = 
SLURM_CPUS_ON_NODE = 8
SLURM_JOB_PARTITION = lenovo
SLURM_TASK_PID = 1069900
CUDA_VISIBLE_DEVICES = 
==========================================
 running on    8 total cores
 distrk:  each k-point on    8 cores,    1 groups
 distr:  one band on    4 cores,    2 groups
 using from now: INCAR     
 vasp.5.4.4.18Apr17-6-g9f103f2a35 (build Apr 28 2018 00:24:27) complex          
  
 POSCAR found type information on POSCAR  Co
 POSCAR found :  1 types and       4 ions
 scaLAPACK will be used
 LDA part: xc-table for Pade appr. of Perdew
 POSCAR, INCAR and KPOINTS ok, starting setup
 FFT: planning ...
 WAVECAR not read
 entering main loop
       N       E                     dE             d eps       ncg     rms          rms(c)
DAV:   1     0.234747636873E+03    0.23475E+03   -0.16528E+04 12680   0.224E+03
DAV:   2    -0.148465954020E+02   -0.24959E+03   -0.24304E+03 12798   0.396E+02
DAV:   3    -0.313499456386E+02   -0.16503E+02   -0.15593E+02 16262   0.129E+02
DAV:   4    -0.322936910637E+02   -0.94375E+00   -0.89971E+00 15744   0.276E+01
DAV:   5    -0.323180009703E+02   -0.24310E-01   -0.24096E-01 16626   0.397E+00    0.207E+01
DAV:   6    -0.282861233373E+02    0.40319E+01   -0.61270E+01 14848   0.106E+02    0.954E+00
DAV:   7    -0.274057499644E+02    0.88037E+00   -0.69452E+00 13940   0.364E+01    0.417E+00
DAV:   8    -0.273789973269E+02    0.26753E-01   -0.98703E-02 14916   0.382E+00    0.188E+00
DAV:   9    -0.273525885336E+02    0.26409E-01   -0.28349E-02 17796   0.184E+00    0.586E-01
DAV:  10    -0.273485649550E+02    0.40236E-02   -0.53162E-03 17578   0.698E-01    0.508E-02
DAV:  11    -0.273486041132E+02   -0.39158E-04   -0.34879E-04 12806   0.252E-01    0.670E-02
DAV:  12    -0.273486198880E+02   -0.15775E-04   -0.24634E-05 17346   0.633E-02    0.371E-02
DAV:  13    -0.273486317851E+02   -0.11897E-04   -0.24526E-06  7870   0.210E-02    0.101E-02
DAV:  14    -0.273486349445E+02   -0.31594E-05   -0.25780E-06  9214   0.135E-02    0.123E-03
DAV:  15    -0.273486359935E+02   -0.10490E-05   -0.53647E-07  6432   0.981E-03    0.819E-04
DAV:  16    -0.273486367217E+02   -0.72815E-06   -0.11930E-07  6408   0.335E-03
   1 F= -.27348637E+02 E0= -.27348637E+02  d E =0.000000E+00  mag=    -0.0000
