       N       E                     dE             d eps       ncg     rms          rms(c)
DAV:   1     0.142058165050E+04    0.14206E+04   -0.51384E+04 79392   0.217E+03
DAV:   2     0.135127051750E+03   -0.12855E+04   -0.11920E+04 78800   0.627E+02
DAV:   3    -0.735047802331E+02   -0.20863E+03   -0.19388E+03 86248   0.240E+02
DAV:   4    -0.864078525969E+02   -0.12903E+02   -0.12814E+02 85340   0.587E+01
DAV:   5    -0.865877743544E+02   -0.17992E+00   -0.17962E+00 86516   0.791E+00    0.502E+01
DAV:   6    -0.618242520401E+02    0.24764E+02   -0.11721E+02 94868   0.104E+02    0.495E+01
DAV:   7    -0.667326790341E+02   -0.49084E+01   -0.22079E+01 80168   0.315E+01    0.286E+01
DAV:   8    -0.667865903576E+02   -0.53911E-01   -0.43091E+00 97628   0.139E+01    0.204E+01
DAV:   9    -0.665941514261E+02    0.19244E+00   -0.19110E+00 83092   0.145E+01    0.989E+00
DAV:  10    -0.666890545909E+02   -0.94903E-01   -0.22423E-01 85732   0.447E+00    0.214E+00
DAV:  11    -0.666914198784E+02   -0.23653E-02   -0.32836E-02 83048   0.120E+00    0.135E+00
DAV:  12    -0.666781483724E+02    0.13272E-01   -0.57033E-02 82900   0.214E+00    0.458E-01
DAV:  13    -0.666793993496E+02   -0.12510E-02   -0.17136E-02 85440   0.655E-01    0.388E-01
DAV:  14    -0.666793430709E+02    0.56279E-04   -0.14470E-03 91112   0.246E-01    0.257E-01
DAV:  15    -0.666794175317E+02   -0.74461E-04   -0.39144E-04 85616   0.191E-01    0.585E-02
DAV:  16    -0.666794195562E+02   -0.20244E-05   -0.52113E-05 82240   0.579E-02    0.153E-02
DAV:  17    -0.666794164474E+02    0.31088E-05   -0.13630E-05 82928   0.253E-02    0.159E-02
DAV:  18    -0.666794167053E+02   -0.25790E-06   -0.15773E-06 75352   0.882E-03    0.131E-02
DAV:  19    -0.666794168846E+02   -0.17930E-06   -0.73161E-07 72852   0.802E-03    0.635E-03
DAV:  20    -0.666794170402E+02   -0.15557E-06   -0.20227E-07 51804   0.261E-03    0.190E-03
DAV:  21    -0.666794170870E+02   -0.46883E-07   -0.34539E-08 43532   0.177E-03
   1 F= -.66679417E+02 E0= -.66679417E+02  d E =0.000000E+00  mag=    -0.0000
