       N       E                     dE             d eps       ncg     rms          rms(c)
DAV:   1     0.131768857594E+04    0.13177E+04   -0.32087E+04 59936   0.370E+03
DAV:   2     0.354180808447E+03   -0.96351E+03   -0.87127E+03 68752   0.741E+02
DAV:   3    -0.527777666168E+01   -0.35946E+03   -0.34850E+03 78424   0.373E+02
DAV:   4    -0.749686145765E+02   -0.69691E+02   -0.67873E+02 95400   0.153E+02
DAV:   5    -0.816673262430E+02   -0.66987E+01   -0.62071E+01 98752   0.513E+01    0.385E+01
DAV:   6    -0.922354533357E+02   -0.10568E+02   -0.36098E+02 81008   0.168E+02    0.550E+01
DAV:   7    -0.781793586068E+02    0.14056E+02   -0.21520E+02 68264   0.185E+02    0.267E+01
DAV:   8    -0.836652585030E+02   -0.54859E+01   -0.60530E+01 92424   0.492E+01    0.120E+01
DAV:   9    -0.832213086757E+02    0.44395E+00   -0.60021E+00 90400   0.147E+01    0.512E+00
DAV:  10    -0.832792643857E+02   -0.57956E-01   -0.10950E+00 94608   0.832E+00    0.344E+00
DAV:  11    -0.833048766454E+02   -0.25612E-01   -0.32638E-01 86464   0.503E+00    0.384E+00
DAV:  12    -0.832355076000E+02    0.69369E-01   -0.15442E-01 77552   0.465E+00    0.175E+00
DAV:  13    -0.832261825264E+02    0.93251E-02   -0.67925E-02 97384   0.239E+00    0.543E-01
DAV:  14    -0.832313311402E+02   -0.51486E-02   -0.10852E-02 94360   0.908E-01    0.316E-01
DAV:  15    -0.832322758322E+02   -0.94469E-03   -0.30107E-03 97736   0.494E-01    0.346E-01
DAV:  16    -0.832312396388E+02    0.10362E-02   -0.11633E-03 83552   0.316E-01    0.180E-01
DAV:  17    -0.832315060037E+02   -0.26636E-03   -0.29201E-04 93840   0.182E-01    0.943E-02
DAV:  18    -0.832314777541E+02    0.28250E-04   -0.22468E-04 92168   0.125E-01    0.571E-02
DAV:  19    -0.832314842728E+02   -0.65187E-05   -0.33206E-05 92072   0.863E-02    0.484E-02
DAV:  20    -0.832314836555E+02    0.61726E-06   -0.15227E-04 89640   0.670E-02    0.363E-02
DAV:  21    -0.832314747795E+02    0.88760E-05   -0.21798E-05 88272   0.753E-02    0.306E-02
DAV:  22    -0.832314775121E+02   -0.27326E-05   -0.71609E-06 93024   0.380E-02    0.181E-02
DAV:  23    -0.832314812869E+02   -0.37748E-05   -0.79866E-05 76696   0.258E-02    0.345E-02
DAV:  24    -0.832314794228E+02    0.18641E-05   -0.91363E-06 58800   0.539E-02    0.320E-02
DAV:  25    -0.832314768087E+02    0.26141E-05   -0.13811E-06 70480   0.206E-02    0.279E-02
DAV:  26    -0.832314768569E+02   -0.48189E-07   -0.19333E-06 74280   0.250E-02    0.222E-02
DAV:  27    -0.832314758472E+02    0.10097E-05   -0.71641E-05 67736   0.173E-02    0.262E-02
DAV:  28    -0.832314726796E+02    0.31675E-05   -0.80051E-06 49256   0.495E-02    0.254E-02
DAV:  29    -0.832314718329E+02    0.84671E-06   -0.37064E-07 51272   0.131E-02    0.234E-02
DAV:  30    -0.832314722100E+02   -0.37705E-06   -0.10023E-07 41928   0.782E-03    0.223E-02
DAV:  31    -0.832314734130E+02   -0.12030E-05   -0.22156E-07 44728   0.103E-02    0.204E-02
DAV:  32    -0.832314754930E+02   -0.20800E-05   -0.36410E-07 51208   0.124E-02    0.176E-02
DAV:  33    -0.832314763040E+02   -0.81096E-06   -0.71480E-08 46384   0.612E-03    0.167E-02
DAV:  34    -0.832314767650E+02   -0.46101E-06    0.70948E-08 35504   0.478E-03    0.163E-02
DAV:  35    -0.832314770088E+02   -0.24382E-06    0.11163E-07 34368   0.387E-03    0.160E-02
DAV:  36    -0.832314773831E+02   -0.37426E-06    0.11216E-07 34680   0.407E-03    0.156E-02
DAV:  37    -0.832314789243E+02   -0.15413E-05   -0.19242E-06 37944   0.815E-03    0.107E-02
DAV:  38    -0.832314802250E+02   -0.13007E-05   -0.28753E-05 41840   0.196E-02    0.304E-02
DAV:  39    -0.832314778748E+02    0.23502E-05   -0.57227E-06 44440   0.344E-02    0.300E-02
DAV:  40    -0.832314763949E+02    0.14799E-05   -0.34015E-07 49000   0.123E-02    0.281E-02
DAV:  41    -0.832314760497E+02    0.34519E-06   -0.50284E-08 39104   0.104E-02    0.263E-02
DAV:  42    -0.832314763405E+02   -0.29079E-06   -0.60031E-07 55200   0.130E-02    0.238E-02
DAV:  43    -0.832314767371E+02   -0.39661E-06   -0.16784E-07 45976   0.698E-03    0.218E-02
DAV:  44    -0.832314769920E+02   -0.25485E-06   -0.17703E-07 37208   0.506E-03    0.187E-02
DAV:  45    -0.832314774006E+02   -0.40863E-06   -0.13706E-05 33992   0.606E-03    0.225E-02
DAV:  46    -0.832314759002E+02    0.15004E-05   -0.28246E-06 41960   0.205E-02    0.235E-02
DAV:  47    -0.832314752875E+02    0.61269E-06    0.28347E-08 37248   0.549E-03    0.235E-02
DAV:  48    -0.832314751981E+02    0.89363E-07    0.64046E-08 35208   0.397E-03
   1 F= -.83231475E+02 E0= -.83231475E+02  d E =0.000000E+00  mag=    -0.0000
