=========================================
SLURM_JOB_ID = 31799449
SLURM_JOB_NODELIST = lnode25
SLURM_GPUS = 
SLURM_CPUS_ON_NODE = 8
SLURM_JOB_PARTITION = lenovo
SLURM_TASK_PID = 1508887
CUDA_VISIBLE_DEVICES = 
==========================================
 running on    8 total cores
 distrk:  each k-point on    8 cores,    1 groups
 distr:  one band on    4 cores,    2 groups
 using from now: INCAR     
 vasp.5.4.4.18Apr17-6-g9f103f2a35 (build Apr 28 2018 00:24:27) complex          
  
 POSCAR found type information on POSCAR  Fe
 POSCAR found :  1 types and       6 ions
 scaLAPACK will be used
 LDA part: xc-table for Pade appr. of Perdew
 generate k-points for:    4    4    3
 POSCAR, INCAR and KPOINTS ok, starting setup
 FFT: planning ...
 WAVECAR not read
 entering main loop
       N       E                     dE             d eps       ncg     rms          rms(c)
DAV:   1     0.382259377679E+03    0.38226E+03   -0.20928E+04  1016   0.224E+03
DAV:   2    -0.138472598466E+02   -0.39611E+03   -0.38820E+03  1008   0.455E+02
DAV:   3    -0.526849580848E+02   -0.38838E+02   -0.35933E+02  1604   0.165E+02
DAV:   4    -0.556018901230E+02   -0.29169E+01   -0.27252E+01  1580   0.495E+01
DAV:   5    -0.557919112670E+02   -0.19002E+00   -0.16001E+00  1600   0.850E+00    0.275E+01
RMM:   6    -0.481935825138E+02    0.75983E+01   -0.74967E+01  1008   0.111E+02    0.139E+01
RMM:   7    -0.527690872930E+02   -0.45755E+01   -0.32865E+01  1041   0.584E+01    0.249E+01
RMM:   8    -0.479409024744E+02    0.48282E+01   -0.93516E+00  1010   0.382E+01    0.580E+00
RMM:   9    -0.481723322045E+02   -0.23143E+00   -0.32003E+00  1446   0.917E+00    0.352E+00
RMM:  10    -0.481376979410E+02    0.34634E-01   -0.39596E-01  1069   0.750E+00    0.205E+00
RMM:  11    -0.481324958677E+02    0.52021E-02   -0.17062E-01  1345   0.262E+00    0.695E-01
RMM:  12    -0.481343489837E+02   -0.18531E-02   -0.65645E-02  1335   0.159E+00    0.488E-01
RMM:  13    -0.481361403599E+02   -0.17914E-02   -0.19627E-02  1560   0.569E-01    0.399E-01
RMM:  14    -0.481356845727E+02    0.45579E-03   -0.57192E-03  1201   0.599E-01    0.144E-01
RMM:  15    -0.481356679339E+02    0.16639E-04   -0.38602E-03  1430   0.342E-01    0.713E-02
RMM:  16    -0.481354397886E+02    0.22815E-03   -0.69441E-04  1341   0.168E-01    0.410E-02
RMM:  17    -0.481352717699E+02    0.16802E-03   -0.20994E-04  1309   0.967E-02    0.191E-02
RMM:  18    -0.481351106953E+02    0.16107E-03   -0.72497E-05  1487   0.344E-02    0.894E-03
RMM:  19    -0.481350801999E+02    0.30495E-04   -0.67786E-06   847   0.179E-02    0.573E-03
RMM:  20    -0.481350744147E+02    0.57852E-05   -0.18168E-06   688   0.114E-02    0.267E-03
RMM:  21    -0.481350545313E+02    0.19883E-04   -0.13538E-06   654   0.116E-02    0.282E-03
RMM:  22    -0.481350481869E+02    0.63444E-05   -0.95980E-07   638   0.108E-02    0.148E-03
RMM:  23    -0.481350491392E+02   -0.95232E-06   -0.59573E-07   621   0.818E-03
   1 F= -.48135049E+02 E0= -.48135049E+02  d E =0.000000E+00  mag=    -0.0000
