       N       E                     dE             d eps       ncg     rms          rms(c)
DAV:   1     0.871396628346E+03    0.87140E+03   -0.25730E+04 10316   0.277E+03
DAV:   2     0.209477737808E+03   -0.66192E+03   -0.49632E+03 11088   0.405E+02
DAV:   3    -0.980555371136E+00   -0.21046E+03   -0.20165E+03  8848   0.225E+02
DAV:   4    -0.270038698987E+02   -0.26023E+02   -0.24716E+02 12476   0.707E+01
DAV:   5    -0.295272268047E+02   -0.25234E+01   -0.24354E+01 15372   0.234E+01    0.224E+01
DAV:   6    -0.441919668323E+02   -0.14665E+02   -0.57161E+01 10720   0.706E+01    0.301E+01
DAV:   7    -0.425924990146E+02    0.15995E+01   -0.90317E+00 11088   0.187E+01    0.107E+01
DAV:   8    -0.410212479800E+02    0.15713E+01   -0.33016E+00 11832   0.140E+01    0.339E+00
DAV:   9    -0.410811304904E+02   -0.59883E-01   -0.16776E+00 12084   0.105E+01    0.387E+00
DAV:  10    -0.410571414682E+02    0.23989E-01   -0.32401E-01 13260   0.384E+00    0.126E+00
DAV:  11    -0.411224766272E+02   -0.65335E-01   -0.56402E-02 15176   0.120E+00    0.632E-01
DAV:  12    -0.411588406918E+02   -0.36364E-01   -0.39032E-02 11832   0.954E-01    0.579E-01
DAV:  13    -0.411597355834E+02   -0.89489E-03   -0.14592E-02 12324   0.734E-01    0.183E-01
DAV:  14    -0.411581289720E+02    0.16066E-02   -0.12416E-02 12832   0.354E-01    0.143E-01
DAV:  15    -0.411576704257E+02    0.45855E-03   -0.13051E-03 14060   0.159E-01    0.114E-01
DAV:  16    -0.411572749525E+02    0.39547E-03   -0.85065E-04 13652   0.202E-01    0.449E-02
DAV:  17    -0.411576546038E+02   -0.37965E-03   -0.18999E-04 13816   0.722E-02    0.875E-03
DAV:  18    -0.411577749330E+02   -0.12033E-03   -0.34037E-05 15152   0.267E-02    0.356E-03
DAV:  19    -0.411577556693E+02    0.19264E-04   -0.62717E-06 13248   0.812E-03    0.171E-03
DAV:  20    -0.411577678335E+02   -0.12164E-04   -0.11602E-06 10848   0.341E-03    0.107E-03
DAV:  21    -0.411577623289E+02    0.55046E-05   -0.11007E-07  7176   0.195E-03    0.935E-04
DAV:  22    -0.411577585000E+02    0.38289E-05   -0.39262E-08  4952   0.173E-03    0.353E-04
DAV:  23    -0.411577577854E+02    0.71464E-06   -0.18491E-08  4884   0.705E-04    0.258E-04
DAV:  24    -0.411577579239E+02   -0.13852E-06   -0.85535E-09  4836   0.797E-04    0.710E-05
DAV:  25    -0.411577575339E+02    0.39000E-06   -0.61507E-09  4808   0.428E-04    0.813E-05
DAV:  26    -0.411577572806E+02    0.25327E-06   -0.41967E-09  4776   0.495E-04    0.631E-05
DAV:  27    -0.411577572930E+02   -0.12378E-07   -0.26612E-09  4752   0.350E-04
   1 F= -.41157757E+02 E0= -.41157757E+02  d E =0.000000E+00  mag=    29.7434
