<?xml version="1.0" encoding="ISO-8859-1"?>
<modeling>
 <generator>
  <i name="program" type="string">vasp </i>
  <i name="version" type="string">5.4.4.18Apr17-6-g9f103f2a35  </i>
  <i name="subversion" type="string">(build Apr 28 2018 00:24:27) complex            parallel </i>
  <i name="platform" type="string">LinuxIFC </i>
  <i name="date" type="string">2021 09 07 </i>
  <i name="time" type="string">01:11:07 </i>
 </generator>
 <incar>
  <i type="string" name="PREC">accurate</i>
  <i type="string" name="ALGO"> Normal</i>
  <i type="int" name="ISPIN">     2</i>
  <i type="int" name="NELM">   100</i>
  <i type="int" name="IBRION">    -1</i>
  <i name="EDIFF">      0.00000010</i>
  <i type="int" name="NSW">     0</i>
  <i type="int" name="ISIF">     3</i>
  <i name="ENCUT">    440.00000000</i>
  <v name="MAGMOM">      5.00000000      5.00000000</v>
  <i type="string" name="LREAL"> Auto</i>
  <i type="int" name="ISMEAR">    -5</i>
  <i name="SIGMA">      0.05000000</i>
  <i type="logical" name="LWAVE"> F  </i>
  <i type="logical" name="LCHARG"> F  </i>
  <i type="logical" name="LVHAR"> F  </i>
  <i type="int" name="LORBIT">    11</i>
  <i type="logical" name="LASPH"> F  </i>
  <i type="logical" name="LAECHG"> F  </i>
  <v type="int" name="KPOINT_BSE">    -1     0     0     0</v>
  <i type="int" name="NELM">   100</i>
  <i type="logical" name="LASPH"> F  </i>
  <i type="int" name="LMAXTAU">     0</i>
 </incar>
 <structure name="primitive_cell" >
  <crystal>
   <varray name="basis" >
    <v>       1.42002600       1.42002600       1.42002600 </v>
    <v>       1.42002600      -1.42002600      -1.42002600 </v>
    <v>      -1.42002600       1.42002600      -1.42002600 </v>
   </varray>
   <i name="volume">     11.45378113 </i>
   <varray name="rec_basis" >
    <v>       0.35210623       0.35210623       0.00000000 </v>
    <v>       0.35210623       0.00000000      -0.35210623 </v>
    <v>       0.00000000       0.35210623      -0.35210623 </v>
   </varray>
  </crystal>
  <varray name="positions" >
   <v>       0.00000000       0.00000000       0.00000000 </v>
  </varray>
 </structure>
 <varray name="primitive_index" >
  <v type="int" >        1 </v>
 </varray>
 <kpoints>
  <generation param="Monkhorst-Pack">
   <v type="int" name="divisions">      10       10       10 </v>
   <v name="usershift">      0.00000000       0.00000000       0.00000000 </v>
   <v name="genvec1">      0.10000000       0.00000000       0.00000000 </v>
   <v name="genvec2">      0.00000000       0.10000000       0.00000000 </v>
   <v name="genvec3">      0.00000000       0.00000000       0.10000000 </v>
   <v name="shift">      0.50000000       0.50000000       0.50000000 </v>
  </generation>
  <varray name="kpointlist" >
   <v>       0.05000000       0.05000000       0.05000000 </v>
   <v>       0.15000000       0.05000000       0.05000000 </v>
   <v>       0.25000000       0.05000000       0.05000000 </v>
   <v>       0.35000000       0.05000000       0.05000000 </v>
   <v>       0.45000000       0.05000000       0.05000000 </v>
   <v>       0.15000000       0.15000000       0.05000000 </v>
   <v>       0.25000000       0.15000000       0.05000000 </v>
   <v>       0.35000000       0.15000000       0.05000000 </v>
   <v>       0.45000000       0.15000000       0.05000000 </v>
   <v>       0.25000000       0.25000000       0.05000000 </v>
   <v>       0.35000000       0.25000000       0.05000000 </v>
   <v>       0.45000000       0.25000000       0.05000000 </v>
   <v>       0.35000000       0.35000000       0.05000000 </v>
   <v>       0.45000000       0.35000000       0.05000000 </v>
   <v>       0.45000000       0.45000000       0.05000000 </v>
   <v>       0.15000000       0.15000000       0.15000000 </v>
   <v>       0.25000000       0.15000000       0.15000000 </v>
   <v>       0.35000000       0.15000000       0.15000000 </v>
   <v>       0.45000000       0.15000000       0.15000000 </v>
   <v>       0.25000000       0.25000000       0.15000000 </v>
   <v>       0.35000000       0.25000000       0.15000000 </v>
   <v>       0.45000000       0.25000000       0.15000000 </v>
   <v>       0.35000000       0.35000000       0.15000000 </v>
   <v>       0.45000000       0.35000000       0.15000000 </v>
   <v>       0.45000000       0.45000000       0.15000000 </v>
   <v>       0.25000000       0.25000000       0.25000000 </v>
   <v>       0.35000000       0.25000000       0.25000000 </v>
   <v>       0.45000000       0.25000000       0.25000000 </v>
   <v>       0.35000000       0.35000000       0.25000000 </v>
   <v>       0.45000000       0.35000000       0.25000000 </v>
   <v>       0.45000000       0.45000000       0.25000000 </v>
   <v>       0.35000000       0.35000000       0.35000000 </v>
   <v>       0.45000000       0.35000000       0.35000000 </v>
   <v>       0.45000000       0.45000000       0.35000000 </v>
   <v>       0.45000000       0.45000000       0.45000000 </v>
  </varray>
  <varray name="weights" >
   <v>       0.00800000 </v>
   <v>       0.02400000 </v>
   <v>       0.02400000 </v>
   <v>       0.02400000 </v>
   <v>       0.02400000 </v>
   <v>       0.02400000 </v>
   <v>       0.04800000 </v>
   <v>       0.04800000 </v>
   <v>       0.04800000 </v>
   <v>       0.02400000 </v>
   <v>       0.04800000 </v>
   <v>       0.04800000 </v>
   <v>       0.02400000 </v>
   <v>       0.04800000 </v>
   <v>       0.02400000 </v>
   <v>       0.00800000 </v>
   <v>       0.02400000 </v>
   <v>       0.02400000 </v>
   <v>       0.02400000 </v>
   <v>       0.02400000 </v>
   <v>       0.04800000 </v>
   <v>       0.04800000 </v>
   <v>       0.02400000 </v>
   <v>       0.04800000 </v>
   <v>       0.02400000 </v>
   <v>       0.00800000 </v>
   <v>       0.02400000 </v>
   <v>       0.02400000 </v>
   <v>       0.02400000 </v>
   <v>       0.04800000 </v>
   <v>       0.02400000 </v>
   <v>       0.00800000 </v>
   <v>       0.02400000 </v>
   <v>       0.02400000 </v>
   <v>       0.00800000 </v>
  </varray>
  <varray name="tetrahedronlist"  type="int" >
   <v type="int" >       24        1        2        2        6 </v>
   <v type="int" >       18        2        2        6        6 </v>
   <v type="int" >       12        2        6        6       16 </v>
   <v type="int" >       12        2        3        6        7 </v>
   <v type="int" >       24        2        6        6        7 </v>
   <v type="int" >       12        6        6        7       16 </v>
   <v type="int" >       24        3        6        7        7 </v>
   <v type="int" >       24        6        7        7       17 </v>
   <v type="int" >       24        6        7       16       17 </v>
   <v type="int" >       12        3        4        7        8 </v>
   <v type="int" >       24        3        7        7        8 </v>
   <v type="int" >       12        7        7        8       17 </v>
   <v type="int" >       24        4        7        8        8 </v>
   <v type="int" >       12        7        8        8       18 </v>
   <v type="int" >       12        7        8       17       18 </v>
   <v type="int" >       12        4        5        8        9 </v>
   <v type="int" >       24        4        8        8        9 </v>
   <v type="int" >       12        8        8        9       18 </v>
   <v type="int" >       24        5        8        9        9 </v>
   <v type="int" >       12        8        9        9       19 </v>
   <v type="int" >       12        8        9       18       19 </v>
   <v type="int" >       30        5        5        9        9 </v>
   <v type="int" >       36        5        9        9        9 </v>
   <v type="int" >       12        9        9        9       19 </v>
   <v type="int" >        6        9        9       19       19 </v>
   <v type="int" >       18        1        1        2        2 </v>
   <v type="int" >       24        1        2        2        2 </v>
   <v type="int" >       12        2        2        2        6 </v>
   <v type="int" >       12        6        7       10       16 </v>
   <v type="int" >       12        7       10       16       17 </v>
   <v type="int" >       12       10       16       17       20 </v>
   <v type="int" >       12        7        8       11       17 </v>
   <v type="int" >       12        7       10       11       17 </v>
   <v type="int" >       12       10       11       17       20 </v>
   <v type="int" >       12        8       11       17       18 </v>
   <v type="int" >       12       11       17       18       21 </v>
   <v type="int" >       12       11       17       20       21 </v>
   <v type="int" >       12        8        9       12       18 </v>
   <v type="int" >       12        8       11       12       18 </v>
   <v type="int" >       12       11       12       18       21 </v>
   <v type="int" >       12        9       12       18       19 </v>
   <v type="int" >       12       12       18       19       22 </v>
   <v type="int" >       12       12       18       21       22 </v>
   <v type="int" >       12        9        9       12       19 </v>
   <v type="int" >       12        9       12       12       19 </v>
   <v type="int" >       12       12       12       19       22 </v>
   <v type="int" >       12        9       12       19       19 </v>
   <v type="int" >       12       12       19       19       22 </v>
   <v type="int" >       12       12       19       22       22 </v>
   <v type="int" >       12        8        9       11       19 </v>
   <v type="int" >       12        9       11       12       19 </v>
   <v type="int" >       12       11       12       19       22 </v>
   <v type="int" >       12        8       11       18       19 </v>
   <v type="int" >       12       11       18       19       21 </v>
   <v type="int" >       12       11       19       21       22 </v>
   <v type="int" >       12        7        8       10       18 </v>
   <v type="int" >       12        8       10       11       18 </v>
   <v type="int" >       12       10       11       18       21 </v>
   <v type="int" >       12        7       10       17       18 </v>
   <v type="int" >       12       10       17       18       20 </v>
   <v type="int" >       12       10       18       20       21 </v>
   <v type="int" >       12        7        7       10       17 </v>
   <v type="int" >       12        7       10       17       20 </v>
   <v type="int" >       12        7       16       17       17 </v>
   <v type="int" >       12        7       17       17       20 </v>
   <v type="int" >       12        2        3        6       16 </v>
   <v type="int" >       12        3        6        7       16 </v>
   <v type="int" >       12        3        7       16       17 </v>
   <v type="int" >       12        2        2        3        6 </v>
   <v type="int" >       12        2        3        3        6 </v>
   <v type="int" >       12        3        3        6        7 </v>
   <v type="int" >       12        2        3        6        6 </v>
   <v type="int" >       12        3        6        6        7 </v>
   <v type="int" >       12       10       11       13       20 </v>
   <v type="int" >       12       11       13       20       21 </v>
   <v type="int" >       12       13       20       21       23 </v>
   <v type="int" >       12       11       12       14       21 </v>
   <v type="int" >       12       11       13       14       21 </v>
   <v type="int" >       12       13       14       21       23 </v>
   <v type="int" >       12       12       14       21       22 </v>
   <v type="int" >       12       14       21       22       24 </v>
   <v type="int" >       12       14       21       23       24 </v>
   <v type="int" >       12       12       12       14       22 </v>
   <v type="int" >       12       12       14       14       22 </v>
   <v type="int" >       12       14       14       22       24 </v>
   <v type="int" >       12       12       14       22       22 </v>
   <v type="int" >       12       14       22       22       24 </v>
   <v type="int" >       12       14       22       24       24 </v>
   <v type="int" >       12       11       12       13       22 </v>
   <v type="int" >       12       12       13       14       22 </v>
   <v type="int" >       12       13       14       22       24 </v>
   <v type="int" >       12       11       13       21       22 </v>
   <v type="int" >       12       13       21       22       23 </v>
   <v type="int" >       12       13       22       23       24 </v>
   <v type="int" >       12       10       11       11       21 </v>
   <v type="int" >       12       11       11       13       21 </v>
   <v type="int" >       12       11       13       21       23 </v>
   <v type="int" >       12       10       11       20       21 </v>
   <v type="int" >       12       11       20       21       21 </v>
   <v type="int" >       12       11       21       21       23 </v>
   <v type="int" >       12        7        8       10       20 </v>
   <v type="int" >       12        8       10       11       20 </v>
   <v type="int" >       12        8       11       20       21 </v>
   <v type="int" >       12        7        8       17       20 </v>
   <v type="int" >       12        8       17       18       20 </v>
   <v type="int" >       12        8       18       20       21 </v>
   <v type="int" >       12        3        4        7       17 </v>
   <v type="int" >       12        4        7        8       17 </v>
   <v type="int" >       12        4        8       17       18 </v>
   <v type="int" >       12        3        3        4        7 </v>
   <v type="int" >       12        3        4        4        7 </v>
   <v type="int" >       12        4        4        7        8 </v>
   <v type="int" >       12        3        4        7        7 </v>
   <v type="int" >       12        4        7        7        8 </v>
   <v type="int" >       12       13       14       15       23 </v>
   <v type="int" >       12       14       15       23       24 </v>
   <v type="int" >       12       15       23       24       25 </v>
   <v type="int" >       24       14       14       15       24 </v>
   <v type="int" >       12       14       15       15       24 </v>
   <v type="int" >       12       15       15       24       25 </v>
   <v type="int" >       12       14       15       24       24 </v>
   <v type="int" >       12       15       24       24       25 </v>
   <v type="int" >       12       15       24       25       25 </v>
   <v type="int" >       12       13       14       14       24 </v>
   <v type="int" >       12       14       15       24       25 </v>
   <v type="int" >       12       13       14       23       24 </v>
   <v type="int" >       12       14       23       24       24 </v>
   <v type="int" >       24       14       24       24       25 </v>
   <v type="int" >       12       11       12       13       23 </v>
   <v type="int" >       12       12       13       14       23 </v>
   <v type="int" >       12       12       14       23       24 </v>
   <v type="int" >       12       11       12       21       23 </v>
   <v type="int" >       12       12       21       22       23 </v>
   <v type="int" >       12       12       22       23       24 </v>
   <v type="int" >       12        8        9       11       21 </v>
   <v type="int" >       12        9       11       12       21 </v>
   <v type="int" >       12        9       12       21       22 </v>
   <v type="int" >       12        8        9       18       21 </v>
   <v type="int" >       12        9       18       19       21 </v>
   <v type="int" >       12        9       19       21       22 </v>
   <v type="int" >       12        4        5        8       18 </v>
   <v type="int" >       12        5        8        9       18 </v>
   <v type="int" >       12        5        9       18       19 </v>
   <v type="int" >       12        4        4        5        8 </v>
   <v type="int" >       12        4        5        5        8 </v>
   <v type="int" >       12        5        5        8        9 </v>
   <v type="int" >       12        4        5        8        8 </v>
   <v type="int" >       12        5        8        8        9 </v>
   <v type="int" >       12       15       15       15       25 </v>
   <v type="int" >       12       15       15       25       25 </v>
   <v type="int" >       12       15       25       25       25 </v>
   <v type="int" >       12       14       14       15       25 </v>
   <v type="int" >       12       14       15       15       25 </v>
   <v type="int" >       12       14       15       25       25 </v>
   <v type="int" >       12       14       14       24       25 </v>
   <v type="int" >       12       14       24       25       25 </v>
   <v type="int" >       12       12       12       14       24 </v>
   <v type="int" >       12       12       14       14       24 </v>
   <v type="int" >       12       12       14       24       24 </v>
   <v type="int" >       12       12       12       22       24 </v>
   <v type="int" >       12       12       22       22       24 </v>
   <v type="int" >       12       12       22       24       24 </v>
   <v type="int" >       12        9        9       12       22 </v>
   <v type="int" >       12        9       12       12       22 </v>
   <v type="int" >       12        9       12       22       22 </v>
   <v type="int" >       12        9        9       19       22 </v>
   <v type="int" >       12        9       19       19       22 </v>
   <v type="int" >       12        9       19       22       22 </v>
   <v type="int" >       12        5        5        9       19 </v>
   <v type="int" >       12        5        9        9       19 </v>
   <v type="int" >       12        5        9       19       19 </v>
   <v type="int" >       24        5        5        5        9 </v>
   <v type="int" >       12       13       14       15       25 </v>
   <v type="int" >       12       13       14       24       25 </v>
   <v type="int" >       12       13       23       24       25 </v>
   <v type="int" >       12       11       12       14       24 </v>
   <v type="int" >       12       11       13       14       24 </v>
   <v type="int" >       12       11       13       23       24 </v>
   <v type="int" >       12       11       12       22       24 </v>
   <v type="int" >       12       11       21       22       24 </v>
   <v type="int" >       12       11       21       23       24 </v>
   <v type="int" >       12        8        9       12       22 </v>
   <v type="int" >       12        8       11       12       22 </v>
   <v type="int" >       12        8       11       21       22 </v>
   <v type="int" >       12        8        9       19       22 </v>
   <v type="int" >       12        8       18       19       22 </v>
   <v type="int" >       12        8       18       21       22 </v>
   <v type="int" >       12        4        5        9       19 </v>
   <v type="int" >       12        4        8        9       19 </v>
   <v type="int" >       12        4        8       18       19 </v>
   <v type="int" >       12        4        5        5        9 </v>
   <v type="int" >       12        4        4        5        9 </v>
   <v type="int" >       12        4        4        8        9 </v>
   <v type="int" >       12        4        5        9        9 </v>
   <v type="int" >       12        4        8        9        9 </v>
   <v type="int" >       12       10       11       13       23 </v>
   <v type="int" >       12       10       11       21       23 </v>
   <v type="int" >       12       10       20       21       23 </v>
   <v type="int" >       12        7        8       11       21 </v>
   <v type="int" >       12        7       10       11       21 </v>
   <v type="int" >       12        7       10       20       21 </v>
   <v type="int" >       12        7        8       18       21 </v>
   <v type="int" >       12        7       17       18       21 </v>
   <v type="int" >       12        7       17       20       21 </v>
   <v type="int" >       12        3        4        8       18 </v>
   <v type="int" >       12        3        7        8       18 </v>
   <v type="int" >       12        3        7       17       18 </v>
   <v type="int" >       12        3        4        4        8 </v>
   <v type="int" >       12        3        3        4        8 </v>
   <v type="int" >       12        3        3        7        8 </v>
   <v type="int" >       12        3        4        8        8 </v>
   <v type="int" >       12        3        7        8        8 </v>
   <v type="int" >       12        6        7       10       20 </v>
   <v type="int" >       12        6        7       17       20 </v>
   <v type="int" >       12        6       16       17       20 </v>
   <v type="int" >       12        2        3        7       17 </v>
   <v type="int" >       12        2        6        7       17 </v>
   <v type="int" >       12        2        6       16       17 </v>
   <v type="int" >       12        2        3        3        7 </v>
   <v type="int" >       12        2        2        3        7 </v>
   <v type="int" >       12        2        2        6        7 </v>
   <v type="int" >       12        2        3        7        7 </v>
   <v type="int" >       12        2        6        7        7 </v>
   <v type="int" >       12        1        2        6       16 </v>
   <v type="int" >       12        1        1        2        6 </v>
   <v type="int" >       12        1        2        6        6 </v>
   <v type="int" >       12        1        1        1        2 </v>
   <v type="int" >       12       16       17       17       20 </v>
   <v type="int" >       12       17       17       20       20 </v>
   <v type="int" >       12       17       20       20       26 </v>
   <v type="int" >       12       17       18       20       21 </v>
   <v type="int" >       12       17       20       20       21 </v>
   <v type="int" >       12       20       20       21       26 </v>
   <v type="int" >       12       18       20       21       21 </v>
   <v type="int" >       24       20       21       21       27 </v>
   <v type="int" >       24       20       21       26       27 </v>
   <v type="int" >       12       18       19       21       22 </v>
   <v type="int" >       12       18       21       21       22 </v>
   <v type="int" >       12       21       21       22       27 </v>
   <v type="int" >       12       19       21       22       22 </v>
   <v type="int" >       12       21       22       22       28 </v>
   <v type="int" >       12       21       22       27       28 </v>
   <v type="int" >        6       19       19       22       22 </v>
   <v type="int" >       12       19       22       22       22 </v>
   <v type="int" >       12       22       22       22       28 </v>
   <v type="int" >        6       22       22       28       28 </v>
   <v type="int" >        6        6        6        7        7 </v>
   <v type="int" >       12        6        7        7        7 </v>
   <v type="int" >       12        7        7        7       10 </v>
   <v type="int" >        6        7        7       10       10 </v>
   <v type="int" >       12       20       21       23       26 </v>
   <v type="int" >       12       21       23       26       27 </v>
   <v type="int" >       12       23       26       27       29 </v>
   <v type="int" >       12       21       22       24       27 </v>
   <v type="int" >       12       21       23       24       27 </v>
   <v type="int" >       12       23       24       27       29 </v>
   <v type="int" >       12       22       24       27       28 </v>
   <v type="int" >       12       24       27       28       30 </v>
   <v type="int" >       12       24       27       29       30 </v>
   <v type="int" >       12       22       22       24       28 </v>
   <v type="int" >       12       22       24       24       28 </v>
   <v type="int" >       12       24       24       28       30 </v>
   <v type="int" >       12       22       24       28       28 </v>
   <v type="int" >       12       24       28       28       30 </v>
   <v type="int" >       12       24       28       30       30 </v>
   <v type="int" >       12       21       22       23       28 </v>
   <v type="int" >       12       22       23       24       28 </v>
   <v type="int" >       12       23       24       28       30 </v>
   <v type="int" >       12       21       23       27       28 </v>
   <v type="int" >       12       23       27       28       29 </v>
   <v type="int" >       12       23       28       29       30 </v>
   <v type="int" >       12       21       21       23       27 </v>
   <v type="int" >       12       21       23       27       29 </v>
   <v type="int" >       12       21       26       27       27 </v>
   <v type="int" >       12       21       27       27       29 </v>
   <v type="int" >       12       17       18       20       26 </v>
   <v type="int" >       12       18       20       21       26 </v>
   <v type="int" >       12       18       21       26       27 </v>
   <v type="int" >       12        7        7        8       10 </v>
   <v type="int" >       12        7        8        8       10 </v>
   <v type="int" >       12        8        8       10       11 </v>
   <v type="int" >       12        7        8       10       10 </v>
   <v type="int" >       12        8       10       10       11 </v>
   <v type="int" >       12        8       10       11       11 </v>
   <v type="int" >       12       23       24       25       29 </v>
   <v type="int" >       12       24       25       29       30 </v>
   <v type="int" >       12       25       29       30       31 </v>
   <v type="int" >       24       24       24       25       30 </v>
   <v type="int" >       12       24       25       25       30 </v>
   <v type="int" >       12       25       25       30       31 </v>
   <v type="int" >       12       24       25       30       30 </v>
   <v type="int" >       12       25       30       30       31 </v>
   <v type="int" >       12       25       30       31       31 </v>
   <v type="int" >       12       23       24       24       30 </v>
   <v type="int" >       12       24       25       30       31 </v>
   <v type="int" >       12       23       24       29       30 </v>
   <v type="int" >       12       24       29       30       30 </v>
   <v type="int" >       24       24       30       30       31 </v>
   <v type="int" >       12       21       22       23       29 </v>
   <v type="int" >       12       22       23       24       29 </v>
   <v type="int" >       12       22       24       29       30 </v>
   <v type="int" >       12       21       22       27       29 </v>
   <v type="int" >       12       22       27       28       29 </v>
   <v type="int" >       12       22       28       29       30 </v>
   <v type="int" >       12       18       19       21       27 </v>
   <v type="int" >       12       19       21       22       27 </v>
   <v type="int" >       12       19       22       27       28 </v>
   <v type="int" >       12        8        8        9       11 </v>
   <v type="int" >       12        8        9        9       11 </v>
   <v type="int" >       12        9        9       11       12 </v>
   <v type="int" >       12        8        9       11       11 </v>
   <v type="int" >       12        9       11       11       12 </v>
   <v type="int" >       12        9       11       12       12 </v>
   <v type="int" >       12       25       25       25       31 </v>
   <v type="int" >       12       25       25       31       31 </v>
   <v type="int" >       12       25       31       31       31 </v>
   <v type="int" >       12       24       24       25       31 </v>
   <v type="int" >       12       24       25       25       31 </v>
   <v type="int" >       12       24       25       31       31 </v>
   <v type="int" >       12       24       24       30       31 </v>
   <v type="int" >       12       24       30       31       31 </v>
   <v type="int" >       12       22       22       24       30 </v>
   <v type="int" >       12       22       24       24       30 </v>
   <v type="int" >       12       22       24       30       30 </v>
   <v type="int" >       12       22       22       28       30 </v>
   <v type="int" >       12       22       28       28       30 </v>
   <v type="int" >       12       22       28       30       30 </v>
   <v type="int" >       12       19       19       22       28 </v>
   <v type="int" >       12       19       22       22       28 </v>
   <v type="int" >       12       19       22       28       28 </v>
   <v type="int" >       24        9        9        9       12 </v>
   <v type="int" >       24        9        9       12       12 </v>
   <v type="int" >       24        9       12       12       12 </v>
   <v type="int" >       12       23       24       25       31 </v>
   <v type="int" >       12       23       24       30       31 </v>
   <v type="int" >       12       23       29       30       31 </v>
   <v type="int" >       12       21       22       24       30 </v>
   <v type="int" >       12       21       23       24       30 </v>
   <v type="int" >       12       21       23       29       30 </v>
   <v type="int" >       12       21       22       28       30 </v>
   <v type="int" >       12       21       27       28       30 </v>
   <v type="int" >       12       21       27       29       30 </v>
   <v type="int" >       12       18       19       22       28 </v>
   <v type="int" >       12       18       21       22       28 </v>
   <v type="int" >       12       18       21       27       28 </v>
   <v type="int" >       12        8        9        9       12 </v>
   <v type="int" >       12        8        8        9       12 </v>
   <v type="int" >       12        8        8       11       12 </v>
   <v type="int" >       12        8        9       12       12 </v>
   <v type="int" >       12        8       11       12       12 </v>
   <v type="int" >       12        8       11       11       12 </v>
   <v type="int" >       12       20       21       23       29 </v>
   <v type="int" >       12       20       21       27       29 </v>
   <v type="int" >       12       20       26       27       29 </v>
   <v type="int" >       12       17       18       21       27 </v>
   <v type="int" >       12       17       20       21       27 </v>
   <v type="int" >       12       17       20       26       27 </v>
   <v type="int" >       12        7        8        8       11 </v>
   <v type="int" >       12        7        7        8       11 </v>
   <v type="int" >       12        7        7       10       11 </v>
   <v type="int" >       12        7        8       11       11 </v>
   <v type="int" >       12        7       10       11       11 </v>
   <v type="int" >       12        7       10       10       11 </v>
   <v type="int" >       12       16       17       20       26 </v>
   <v type="int" >       12        6        7        7       10 </v>
   <v type="int" >       12        6        6        7       10 </v>
   <v type="int" >       12        6        7       10       10 </v>
   <v type="int" >       12        2        2        2        3 </v>
   <v type="int" >       12        2        2        3        3 </v>
   <v type="int" >       12        2        3        3        3 </v>
   <v type="int" >       12       26       27       27       29 </v>
   <v type="int" >       12       27       27       29       29 </v>
   <v type="int" >       12       27       29       29       32 </v>
   <v type="int" >       12       27       28       29       30 </v>
   <v type="int" >       12       27       29       29       30 </v>
   <v type="int" >       12       29       29       30       32 </v>
   <v type="int" >       12       28       29       30       30 </v>
   <v type="int" >       24       29       30       30       33 </v>
   <v type="int" >       24       29       30       32       33 </v>
   <v type="int" >        6       28       28       30       30 </v>
   <v type="int" >       12       28       30       30       30 </v>
   <v type="int" >       12       30       30       30       33 </v>
   <v type="int" >        6       30       30       33       33 </v>
   <v type="int" >        6       10       10       11       11 </v>
   <v type="int" >       12       10       11       11       11 </v>
   <v type="int" >       12       11       11       11       13 </v>
   <v type="int" >        6       11       11       13       13 </v>
   <v type="int" >       12       29       30       31       32 </v>
   <v type="int" >       12       30       31       32       33 </v>
   <v type="int" >       12       31       32       33       34 </v>
   <v type="int" >       24       30       30       31       33 </v>
   <v type="int" >       12       30       31       31       33 </v>
   <v type="int" >       12       31       31       33       34 </v>
   <v type="int" >       12       30       31       33       33 </v>
   <v type="int" >       12       31       33       33       34 </v>
   <v type="int" >       12       31       33       34       34 </v>
   <v type="int" >       12       30       31       33       34 </v>
   <v type="int" >       12       30       32       33       33 </v>
   <v type="int" >       24       30       33       33       34 </v>
   <v type="int" >       12       27       28       29       32 </v>
   <v type="int" >       12       28       29       30       32 </v>
   <v type="int" >       12       28       30       32       33 </v>
   <v type="int" >       12       11       11       12       13 </v>
   <v type="int" >       12       11       12       12       13 </v>
   <v type="int" >       12       12       12       13       14 </v>
   <v type="int" >       12       11       12       13       13 </v>
   <v type="int" >       12       12       13       13       14 </v>
   <v type="int" >       12       12       13       14       14 </v>
   <v type="int" >       12       31       31       31       34 </v>
   <v type="int" >       12       31       31       34       34 </v>
   <v type="int" >       12       31       34       34       34 </v>
   <v type="int" >       12       30       30       31       34 </v>
   <v type="int" >       12       30       31       31       34 </v>
   <v type="int" >       12       30       31       34       34 </v>
   <v type="int" >       12       30       30       33       34 </v>
   <v type="int" >       12       30       33       34       34 </v>
   <v type="int" >       12       28       28       30       33 </v>
   <v type="int" >       12       28       30       30       33 </v>
   <v type="int" >       12       28       30       33       33 </v>
   <v type="int" >       24       12       12       12       14 </v>
   <v type="int" >       24       12       12       14       14 </v>
   <v type="int" >       24       12       14       14       14 </v>
   <v type="int" >       12       29       30       31       34 </v>
   <v type="int" >       12       29       30       33       34 </v>
   <v type="int" >       12       29       32       33       34 </v>
   <v type="int" >       12       27       28       30       33 </v>
   <v type="int" >       12       27       29       30       33 </v>
   <v type="int" >       12       27       29       32       33 </v>
   <v type="int" >       12       11       12       12       14 </v>
   <v type="int" >       12       11       11       12       14 </v>
   <v type="int" >       12       11       11       13       14 </v>
   <v type="int" >       12       11       12       14       14 </v>
   <v type="int" >       12       11       13       14       14 </v>
   <v type="int" >       12       11       13       13       14 </v>
   <v type="int" >       12       26       27       29       32 </v>
   <v type="int" >       12       10       11       11       13 </v>
   <v type="int" >       12       10       10       11       13 </v>
   <v type="int" >       12       10       11       13       13 </v>
   <v type="int" >       12        3        3        3        4 </v>
   <v type="int" >       12        3        3        4        4 </v>
   <v type="int" >       12        3        4        4        4 </v>
   <v type="int" >       12       32       33       33       34 </v>
   <v type="int" >       18       33       33       34       34 </v>
   <v type="int" >       24       33       34       34       35 </v>
   <v type="int" >       12       33       34       34       34 </v>
   <v type="int" >       24       34       34       34       35 </v>
   <v type="int" >       18       34       34       35       35 </v>
   <v type="int" >        6       13       13       14       14 </v>
   <v type="int" >       12       13       14       14       14 </v>
   <v type="int" >       36       14       14       14       15 </v>
   <v type="int" >       30       14       14       15       15 </v>
   <v type="int" >       12       34       35       35       35 </v>
   <v type="int" >       12       33       33       34       35 </v>
   <v type="int" >       12       33       34       35       35 </v>
   <v type="int" >       24       14       15       15       15 </v>
   <v type="int" >       12       32       33       34       35 </v>
   <v type="int" >       12       13       14       14       15 </v>
   <v type="int" >       12       13       13       14       15 </v>
   <v type="int" >       12       13       14       15       15 </v>
   <v type="int" >       12        4        4        4        5 </v>
   <v type="int" >       12        4        4        5        5 </v>
   <v type="int" >       12        4        5        5        5 </v>
   <v type="int" >        6       35       35       35       35 </v>
   <v type="int" >       18       15       15       15       15 </v>
   <v type="int" >       18        5        5        5        5 </v>
   <v type="int" >        6        1        1        1        1 </v>
  </varray>
  <i name="volumeweight">      0.00016667 </i>
 </kpoints>
 <parameters>
  <separator name="general" >
   <i type="string" name="SYSTEM">unknown system</i>
   <i type="logical" name="LCOMPAT"> F  </i>
  </separator>
  <separator name="electronic" >
   <i type="string" name="PREC">accura</i>
   <i name="ENMAX">    440.00000000</i>
   <i name="ENAUG">    578.34200000</i>
   <i name="EDIFF">      0.00000010</i>
   <i type="int" name="IALGO">    38</i>
   <i type="int" name="IWAVPR">    10</i>
   <i type="int" name="NBANDS">    24</i>
   <i name="NELECT">     28.00000000</i>
   <i type="int" name="TURBO">     0</i>
   <i type="int" name="IRESTART">     0</i>
   <i type="int" name="NREBOOT">     0</i>
   <i type="int" name="NMIN">     0</i>
   <i name="EREF">      0.00000000</i>
   <separator name="electronic smearing" >
    <i type="int" name="ISMEAR">    -5</i>
    <i name="SIGMA">      0.05000000</i>
    <i name="KSPACING">      0.50000000</i>
    <i type="logical" name="KGAMMA"> T  </i>
   </separator>
   <separator name="electronic projectors" >
    <i type="logical" name="LREAL"> T  </i>
    <v name="ROPT">     -0.00025000</v>
    <i type="int" name="LMAXPAW">  -100</i>
    <i type="int" name="LMAXMIX">     2</i>
    <i type="logical" name="NLSPLINE"> F  </i>
   </separator>
   <separator name="electronic startup" >
    <i type="int" name="ISTART">     0</i>
    <i type="int" name="ICHARG">     2</i>
    <i type="int" name="INIWAV">     1</i>
   </separator>
   <separator name="electronic spin" >
    <i type="int" name="ISPIN">     2</i>
    <i type="logical" name="LNONCOLLINEAR"> F  </i>
    <v name="MAGMOM">      5.00000000      5.00000000</v>
    <i name="NUPDOWN">     -1.00000000</i>
    <i type="logical" name="LSORBIT"> F  </i>
    <v name="SAXIS">      0.00000000      0.00000000      1.00000000</v>
    <i type="logical" name="LSPIRAL"> F  </i>
    <v name="QSPIRAL">      0.00000000      0.00000000      0.00000000</v>
    <i type="logical" name="LZEROZ"> F  </i>
   </separator>
   <separator name="electronic exchange-correlation" >
    <i type="logical" name="LASPH"> F  </i>
    <i type="logical" name="LMETAGGA"> F  </i>
   </separator>
   <separator name="electronic convergence" >
    <i type="int" name="NELM">   100</i>
    <i type="int" name="NELMDL">    -5</i>
    <i type="int" name="NELMIN">     2</i>
    <i name="ENINI">    440.00000000</i>
    <separator name="electronic convergence detail" >
     <i type="logical" name="LDIAG"> T  </i>
     <i type="logical" name="LSUBROT"> F  </i>
     <i name="WEIMIN">      0.00000000</i>
     <i name="EBREAK">      0.00000000</i>
     <i name="DEPER">      0.30000000</i>
     <i type="int" name="NRMM">     4</i>
     <i name="TIME">      0.40000000</i>
    </separator>
   </separator>
   <separator name="electronic mixer" >
    <i name="AMIX">      0.40000000</i>
    <i name="BMIX">      1.00000000</i>
    <i name="AMIN">      0.10000000</i>
    <i name="AMIX_MAG">      1.60000000</i>
    <i name="BMIX_MAG">      1.00000000</i>
    <separator name="electronic mixer details" >
     <i type="int" name="IMIX">     4</i>
     <i type="logical" name="MIXFIRST"> F  </i>
     <i type="int" name="MAXMIX">   -45</i>
     <i name="WC">    100.00000000</i>
     <i type="int" name="INIMIX">     1</i>
     <i type="int" name="MIXPRE">     1</i>
     <i type="int" name="MREMOVE">     5</i>
    </separator>
   </separator>
   <separator name="electronic dipolcorrection" >
    <i type="logical" name="LDIPOL"> F  </i>
    <i type="logical" name="LMONO"> F  </i>
    <i type="int" name="IDIPOL">     0</i>
    <i name="EPSILON">      1.00000000</i>
    <v name="DIPOL">   -100.00000000   -100.00000000   -100.00000000</v>
    <i name="EFIELD">      0.00000000</i>
   </separator>
  </separator>
  <separator name="grids" >
   <i type="int" name="NGX">    20</i>
   <i type="int" name="NGY">    20</i>
   <i type="int" name="NGZ">    20</i>
   <i type="int" name="NGXF">    40</i>
   <i type="int" name="NGYF">    40</i>
   <i type="int" name="NGZF">    40</i>
   <i type="logical" name="ADDGRID"> F  </i>
  </separator>
  <separator name="ionic" >
   <i type="int" name="NSW">     0</i>
   <i type="int" name="IBRION">    -1</i>
   <i type="int" name="MDALGO">     0</i>
   <i type="int" name="ISIF">     3</i>
   <i name="PSTRESS">      0.00000000</i>
   <i name="EDIFFG">      0.00000100</i>
   <i type="int" name="NFREE">     0</i>
   <i name="POTIM">      0.50000000</i>
   <i name="SMASS">     -3.00000000</i>
   <i name="SCALEE">      1.00000000</i>
  </separator>
  <separator name="ionic md" >
   <i name="TEBEG">      0.00010000</i>
   <i name="TEEND">      0.00010000</i>
   <i type="int" name="NBLOCK">     1</i>
   <i type="int" name="KBLOCK">     1</i>
   <i type="int" name="NPACO">   256</i>
   <i name="APACO">     16.00000000</i>
  </separator>
  <separator name="symmetry" >
   <i type="int" name="ISYM">     2</i>
   <i name="SYMPREC">      0.00001000</i>
  </separator>
  <separator name="dos" >
   <i type="int" name="LORBIT">    11</i>
   <v name="RWIGS">     -1.00000000</v>
   <i type="int" name="NEDOS">   301</i>
   <i name="EMIN">     10.00000000</i>
   <i name="EMAX">    -10.00000000</i>
   <i name="EFERMI">      0.00000000</i>
  </separator>
  <separator name="writing" >
   <i type="int" name="NWRITE">     2</i>
   <i type="logical" name="LWAVE"> F  </i>
   <i type="logical" name="LDOWNSAMPLE"> F  </i>
   <i type="logical" name="LCHARG"> F  </i>
   <i type="logical" name="LPARD"> F  </i>
   <i type="logical" name="LVTOT"> F  </i>
   <i type="logical" name="LVHAR"> F  </i>
   <i type="logical" name="LELF"> F  </i>
   <i type="logical" name="LOPTICS"> F  </i>
   <v name="STM">      0.00000000      0.00000000      0.00000000      0.00000000      0.00000000      0.00000000      0.00000000</v>
  </separator>
  <separator name="performance" >
   <i type="int" name="NPAR">     6</i>
   <i type="int" name="NSIM">     4</i>
   <i type="int" name="NBLK">    -1</i>
   <i type="logical" name="LPLANE"> T  </i>
   <i type="logical" name="LSCALAPACK"> T  </i>
   <i type="logical" name="LSCAAWARE"> F  </i>
   <i type="logical" name="LSCALU"> F  </i>
   <i type="logical" name="LASYNC"> F  </i>
   <i type="logical" name="LORBITALREAL"> F  </i>
  </separator>
  <separator name="miscellaneous" >
   <i type="int" name="IDIOT">     3</i>
   <i type="int" name="ISPECIAL">     0</i>
   <i type="logical" name="LMUSIC"> F  </i>
   <v name="POMASS">     55.84700000</v>
   <v name="DARWINR">      0.00000000</v>
   <v name="DARWINV">      1.00000000</v>
   <i type="logical" name="LCORR"> T  </i>
  </separator>
  <i type="logical" name="GGA_COMPAT"> T  </i>
  <i type="logical" name="LBERRY"> F  </i>
  <i type="int" name="ICORELEVEL">     0</i>
  <i type="logical" name="LDAU"> F  </i>
  <i type="int" name="I_CONSTRAINED_M">     0</i>
  <separator name="electronic exchange-correlation" >
   <i type="string" name="GGA">--</i>
   <i type="int" name="VOSKOWN">     0</i>
   <i type="logical" name="LHFCALC"> F  </i>
   <i type="string" name="PRECFOCK"></i>
   <i type="logical" name="LSYMGRAD"> F  </i>
   <i type="logical" name="LHFONE"> F  </i>
   <i type="logical" name="LRHFCALC"> F  </i>
   <i type="logical" name="LTHOMAS"> F  </i>
   <i type="logical" name="LMODELHF"> F  </i>
   <i name="ENCUT4O">     -1.00000000</i>
   <i type="int" name="EXXOEP">     0</i>
   <i type="int" name="FOURORBIT">     0</i>
   <i name="AEXX">      0.00000000</i>
   <i name="HFALPHA">      0.00000000</i>
   <i name="MCALPHA">      0.00000000</i>
   <i name="ALDAX">      1.00000000</i>
   <i name="AGGAX">      1.00000000</i>
   <i name="ALDAC">      1.00000000</i>
   <i name="AGGAC">      1.00000000</i>
   <i type="int" name="NKREDX">     1</i>
   <i type="int" name="NKREDY">     1</i>
   <i type="int" name="NKREDZ">     1</i>
   <i type="logical" name="SHIFTRED"> F  </i>
   <i type="logical" name="ODDONLY"> F  </i>
   <i type="logical" name="EVENONLY"> F  </i>
   <i type="int" name="LMAXFOCK">     0</i>
   <i type="int" name="NMAXFOCKAE">     0</i>
   <i type="logical" name="LFOCKAEDFT"> F  </i>
   <i name="HFSCREEN">      0.00000000</i>
   <i name="HFSCREENC">      0.00000000</i>
   <i type="int" name="NBANDSGWLOW">     0</i>
  </separator>
  <separator name="vdW DFT" >
   <i type="logical" name="LUSE_VDW"> F  </i>
   <i name="Zab_VDW">     -0.84910000</i>
   <i name="PARAM1">      0.12340000</i>
   <i name="PARAM2">      1.00000000</i>
   <i name="PARAM3">      0.00000000</i>
  </separator>
  <separator name="model GW" >
   <i type="int" name="MODEL_GW">     0</i>
   <i name="MODEL_EPS0">      6.87226868</i>
   <i name="MODEL_ALPHA">      1.00000000</i>
  </separator>
  <separator name="linear response parameters" >
   <i type="logical" name="LEPSILON"> F  </i>
   <i type="logical" name="LRPA"> F  </i>
   <i type="logical" name="LNABLA"> F  </i>
   <i type="logical" name="LVEL"> F  </i>
   <i type="int" name="KINTER">     0</i>
   <i name="CSHIFT">      0.10000000</i>
   <i name="OMEGAMAX">     -1.00000000</i>
   <i name="DEG_THRESHOLD">      0.00200000</i>
   <i name="RTIME">     -0.10000000</i>
   <i name="WPLASMAI">      0.00000000</i>
   <v name="DFIELD">      0.00000000      0.00000000      0.00000000</v>
   <v name="WPLASMA">      0.00000000      0.00000000      0.00000000      0.00000000      0.00000000      0.00000000      0.00000000      0.00000000      0.00000000</v>
  </separator>
  <separator name="orbital magnetization" >
   <i type="logical" name="NUCIND"> F  </i>
   <v name="MAGPOS">      0.00000000      0.00000000      0.00000000</v>
   <i type="logical" name="LNICSALL"> T  </i>
   <i type="logical" name="ORBITALMAG"> F  </i>
   <i type="logical" name="LMAGBLOCH"> F  </i>
   <i type="logical" name="LCHIMAG"> F  </i>
   <i type="logical" name="LGAUGE"> T  </i>
   <i type="int" name="MAGATOM">     0</i>
   <v name="MAGDIPOL">      0.00000000      0.00000000      0.00000000</v>
   <v name="AVECCONST">      0.00000000      0.00000000      0.00000000</v>
  </separator>
  <separator name="response functions" >
   <i type="logical" name="LADDER"> F  </i>
   <i type="logical" name="LRPAFORCE"> F  </i>
   <i type="logical" name="LFXC"> F  </i>
   <i type="logical" name="LHARTREE"> T  </i>
   <i type="int" name="IBSE">     0</i>
   <v type="int" name="KPOINT">    -1     0     0     0</v>
   <i type="logical" name="LTCTE"> F  </i>
   <i type="logical" name="LTETE"> F  </i>
   <i type="logical" name="LTRIPLET"> F  </i>
   <i type="logical" name="LFXCEPS"> F  </i>
   <i type="logical" name="LFXHEG"> F  </i>
   <i type="int" name="NATURALO">     2</i>
   <i type="logical" name="L2ORDER"> F  </i>
   <i type="logical" name="LMP2LT"> F  </i>
   <i type="logical" name="LUSEW"> F  </i>
   <i name="ENCUTGW">     -2.00000000</i>
   <i name="ENCUTGWSOFT">     -2.00000000</i>
   <i name="ENCUTLF">     -1.00000000</i>
   <i type="int" name="LMAXMP2">    -1</i>
   <i name="SCISSOR">      0.00000000</i>
   <i type="int" name="NOMEGA">     0</i>
   <i type="int" name="NOMEGAR">     0</i>
   <i type="int" name="NBANDSGW">    -1</i>
   <i type="int" name="NBANDSO">    -1</i>
   <i type="int" name="NBANDSV">    -1</i>
   <i type="int" name="NELM">   100</i>
   <i type="int" name="NELMHF">     1</i>
   <i type="int" name="DIM">     3</i>
   <i type="int" name="ANTIRES">     0</i>
   <i name="OMEGAMAX">    -30.00000000</i>
   <i name="OMEGAMIN">    -30.00000000</i>
   <i name="OMEGATL">   -200.00000000</i>
   <i type="int" name="OMEGAGRID">   140</i>
   <i name="CSHIFT">     -0.10000000</i>
   <i type="logical" name="SELFENERGY"> F  </i>
   <i type="logical" name="LSPECTRAL"> F  </i>
   <i type="logical" name="LSPECTRALGW"> F  </i>
   <i type="logical" name="LSINGLES"> F  </i>
   <i type="logical" name="LFERMIGW"> F  </i>
   <i type="logical" name="ODDONLYGW"> F  </i>
   <i type="logical" name="EVENONLYGW"> F  </i>
   <i type="int" name="NKREDLFX">     1</i>
   <i type="int" name="NKREDLFY">     1</i>
   <i type="int" name="NKREDLFZ">     1</i>
   <i type="int" name="MAXMEM">  2800</i>
   <i type="int" name="TELESCOPE">     0</i>
   <i type="int" name="TAUPAR">     1</i>
   <i type="int" name="OMEGAPAR">    -1</i>
   <i name="LAMBDA">      1.00000000</i>
  </separator>
  <separator name="External order field" >
   <i name="OFIELD_KAPPA">      0.00000000</i>
   <v name="OFIELD_K">      0.00000000      0.00000000      0.00000000</v>
   <i name="OFIELD_Q6_NEAR">      0.00000000</i>
   <i name="OFIELD_Q6_FAR">      0.00000000</i>
   <i name="OFIELD_A">      0.00000000</i>
  </separator>
 </parameters>
 <atominfo>
  <atoms>       2 </atoms>
  <types>       1 </types>
  <array name="atoms" >
   <dimension dim="1">ion</dimension>
   <field type="string">element</field>
   <field type="int">atomtype</field>
   <set>
    <rc><c>Fe</c><c>   1</c></rc>
    <rc><c>Fe</c><c>   1</c></rc>
   </set>
  </array>
  <array name="atomtypes" >
   <dimension dim="1">type</dimension>
   <field type="int">atomspertype</field>
   <field type="string">element</field>
   <field>mass</field>
   <field>valence</field>
   <field type="string">pseudopotential</field>
   <set>
    <rc><c>   2</c><c>Fe</c><c>     55.84700000</c><c>     14.00000000</c><c>  PAW_PBE Fe_pv 02Aug2007               </c></rc>
   </set>
  </array>
 </atominfo>
 <structure name="initialpos" >
  <crystal>
   <varray name="basis" >
    <v>       2.84005200       0.00000000       0.00000000 </v>
    <v>       0.00000000       2.84005200       0.00000000 </v>
    <v>       0.00000000       0.00000000       2.84005200 </v>
   </varray>
   <i name="volume">     22.90756226 </i>
   <varray name="rec_basis" >
    <v>       0.35210623       0.00000000       0.00000000 </v>
    <v>       0.00000000       0.35210623       0.00000000 </v>
    <v>       0.00000000       0.00000000       0.35210623 </v>
   </varray>
  </crystal>
  <varray name="positions" >
   <v>       0.00000000       0.00000000       0.00000000 </v>
   <v>       0.50000000       0.50000000       0.50000000 </v>
  </varray>
 </structure>
 <calculation>
  <scstep>
   <time name="dav">    0.42    0.43</time>
   <time name="total">    0.47    0.48</time>
   <energy>
    <i name="alphaZ">    218.87048721 </i>
    <i name="ewald">  -3616.56080017 </i>
    <i name="hartreedc">  -1162.86386254 </i>
    <i name="XCdc">    147.54620390 </i>
    <i name="pawpsdc">   3997.93860218 </i>
    <i name="pawaedc">  -4177.34792201 </i>
    <i name="eentropy">      0.00000000 </i>
    <i name="bandstr">   -137.26900534 </i>
    <i name="atom">   4914.81230811 </i>
    <i name="e_fr_energy">    185.12601134 </i>
    <i name="e_wo_entrp">    185.12601134 </i>
    <i name="e_0_energy">    185.12601134 </i>
   </energy>
  </scstep>
  <scstep>
   <time name="dav">    0.38    0.39</time>
   <time name="total">    0.42    0.42</time>
   <energy>
    <i name="e_fr_energy">    -11.12889236 </i>
    <i name="e_wo_entrp">    -11.12889236 </i>
    <i name="e_0_energy">    -11.12889236 </i>
   </energy>
  </scstep>
  <scstep>
   <time name="dav">    0.43    0.43</time>
   <time name="total">    0.46    0.46</time>
   <energy>
    <i name="e_fr_energy">    -16.23003244 </i>
    <i name="e_wo_entrp">    -16.23003244 </i>
    <i name="e_0_energy">    -16.23003244 </i>
   </energy>
  </scstep>
  <scstep>
   <time name="dav">    0.44    0.44</time>
   <time name="total">    0.47    0.47</time>
   <energy>
    <i name="e_fr_energy">    -16.26931504 </i>
    <i name="e_wo_entrp">    -16.26931504 </i>
    <i name="e_0_energy">    -16.26931504 </i>
   </energy>
  </scstep>
  <scstep>
   <time name="dav">    0.44    0.44</time>
   <time name="total">    0.48    0.48</time>
   <energy>
    <i name="e_fr_energy">    -16.27003326 </i>
    <i name="e_wo_entrp">    -16.27003326 </i>
    <i name="e_0_energy">    -16.27003326 </i>
   </energy>
  </scstep>
  <scstep>
   <time name="dav">    0.38    0.38</time>
   <time name="total">    0.44    0.44</time>
   <energy>
    <i name="e_fr_energy">    -16.43387454 </i>
    <i name="e_wo_entrp">    -16.43387454 </i>
    <i name="e_0_energy">    -16.43387454 </i>
   </energy>
  </scstep>
  <scstep>
   <time name="dav">    0.38    0.39</time>
   <time name="total">    0.44    0.44</time>
   <energy>
    <i name="e_fr_energy">    -16.50489159 </i>
    <i name="e_wo_entrp">    -16.50489159 </i>
    <i name="e_0_energy">    -16.50489159 </i>
   </energy>
  </scstep>
  <scstep>
   <time name="dav">    0.43    0.43</time>
   <time name="total">    0.48    0.48</time>
   <energy>
    <i name="e_fr_energy">    -16.51672248 </i>
    <i name="e_wo_entrp">    -16.51672248 </i>
    <i name="e_0_energy">    -16.51672248 </i>
   </energy>
  </scstep>
  <scstep>
   <time name="dav">    0.41    0.41</time>
   <time name="total">    0.46    0.46</time>
   <energy>
    <i name="e_fr_energy">    -16.50930027 </i>
    <i name="e_wo_entrp">    -16.50930027 </i>
    <i name="e_0_energy">    -16.50930027 </i>
   </energy>
  </scstep>
  <scstep>
   <time name="dav">    0.38    0.38</time>
   <time name="total">    0.44    0.44</time>
   <energy>
    <i name="e_fr_energy">    -16.50924673 </i>
    <i name="e_wo_entrp">    -16.50924673 </i>
    <i name="e_0_energy">    -16.50924673 </i>
   </energy>
  </scstep>
  <scstep>
   <time name="dav">    0.39    0.40</time>
   <time name="total">    0.45    0.45</time>
   <energy>
    <i name="e_fr_energy">    -16.50931503 </i>
    <i name="e_wo_entrp">    -16.50931503 </i>
    <i name="e_0_energy">    -16.50931503 </i>
   </energy>
  </scstep>
  <scstep>
   <time name="dav">    0.42    0.42</time>
   <time name="total">    0.48    0.48</time>
   <energy>
    <i name="e_fr_energy">    -16.50932220 </i>
    <i name="e_wo_entrp">    -16.50932220 </i>
    <i name="e_0_energy">    -16.50932220 </i>
   </energy>
  </scstep>
  <scstep>
   <time name="dav">    0.39    0.39</time>
   <time name="total">    0.45    0.45</time>
   <energy>
    <i name="e_fr_energy">    -16.50931436 </i>
    <i name="e_wo_entrp">    -16.50931436 </i>
    <i name="e_0_energy">    -16.50931436 </i>
   </energy>
  </scstep>
  <scstep>
   <time name="dav">    0.32    0.33</time>
   <time name="total">    0.37    0.38</time>
   <energy>
    <i name="e_fr_energy">    -16.50931400 </i>
    <i name="e_wo_entrp">    -16.50931400 </i>
    <i name="e_0_energy">    -16.50931400 </i>
   </energy>
  </scstep>
  <scstep>
   <time name="dav">    0.25    0.25</time>
   <time name="total">    0.31    0.31</time>
   <energy>
    <i name="e_fr_energy">    -16.50931414 </i>
    <i name="e_wo_entrp">    -16.50931414 </i>
    <i name="e_0_energy">    -16.50931414 </i>
   </energy>
  </scstep>
  <scstep>
   <time name="dav">    0.26    0.26</time>
   <time name="total">    0.31    0.31</time>
   <energy>
    <i name="e_fr_energy">    -16.50931391 </i>
    <i name="e_wo_entrp">    -16.50931391 </i>
    <i name="e_0_energy">    -16.50931391 </i>
   </energy>
  </scstep>
  <scstep>
   <time name="dav">    0.25    0.25</time>
   <time name="total">    0.31    0.31</time>
   <energy>
    <i name="e_fr_energy">    -16.50931403 </i>
    <i name="e_wo_entrp">    -16.50931403 </i>
    <i name="e_0_energy">    -16.50931403 </i>
   </energy>
  </scstep>
  <scstep>
   <time name="dav">    0.25    0.25</time>
   <time name="total">    0.29    0.29</time>
   <energy>
    <i name="alphaZ">    218.87048721 </i>
    <i name="ewald">  -3616.56080017 </i>
    <i name="hartreedc">  -1089.97459257 </i>
    <i name="XCdc">    140.87591021 </i>
    <i name="pawpsdc">   4374.88635224 </i>
    <i name="pawaedc">  -4560.18402590 </i>
    <i name="eentropy">      0.00000000 </i>
    <i name="bandstr">   -399.23495315 </i>
    <i name="atom">   4914.81230811 </i>
    <i name="e_fr_energy">    -16.50931402 </i>
    <i name="e_wo_entrp">    -16.50931402 </i>
    <i name="e_0_energy">    -16.50931402 </i>
   </energy>
  </scstep>
  <structure>
   <crystal>
    <varray name="basis" >
     <v>       2.84005200       0.00000000       0.00000000 </v>
     <v>       0.00000000       2.84005200       0.00000000 </v>
     <v>       0.00000000       0.00000000       2.84005200 </v>
    </varray>
    <i name="volume">     22.90756226 </i>
    <varray name="rec_basis" >
     <v>       0.35210623       0.00000000       0.00000000 </v>
     <v>       0.00000000       0.35210623       0.00000000 </v>
     <v>       0.00000000       0.00000000       0.35210623 </v>
    </varray>
   </crystal>
   <varray name="positions" >
    <v>       0.00000000       0.00000000       0.00000000 </v>
    <v>       0.50000000       0.50000000       0.50000000 </v>
   </varray>
  </structure>
  <varray name="forces" >
   <v>       0.00000000       0.00000000       0.00000000 </v>
   <v>      -0.00000000      -0.00000000      -0.00000000 </v>
  </varray>
  <varray name="stress" >
   <v>     -29.16187486       0.00000000      -0.00000000 </v>
   <v>       0.00000000     -29.16187486      -0.00000000 </v>
   <v>       0.00000000       0.00000000     -29.16187486 </v>
  </varray>
  <energy>
   <i name="e_fr_energy">    -16.50931402 </i>
   <i name="e_wo_entrp">    -16.50931402 </i>
   <i name="e_0_energy">      0.00000000 </i>
  </energy>
  <time name="totalsc">    7.78    7.83</time>
  <eigenvalues>
   <array>
    <dimension dim="1">band</dimension>
    <dimension dim="2">kpoint</dimension>
    <dimension dim="3">spin</dimension>
    <field>eigene</field>
    <field>occ</field>
    <set>
     <set comment="spin 1">
      <set comment="kpoint 1">
       <r>  -44.5592    1.0000 </r>
       <r>  -44.5592    1.0000 </r>
       <r>  -44.5449    1.0000 </r>
       <r>  -44.2877    1.0000 </r>
       <r>  -44.2727    1.0000 </r>
       <r>  -44.2727    1.0000 </r>
       <r>    1.3963    1.0000 </r>
       <r>    4.9398    1.0000 </r>
       <r>    4.9398    1.0000 </r>
       <r>    7.3067    1.0000 </r>
       <r>    7.3067    1.0000 </r>
       <r>    7.4324    1.0000 </r>
       <r>    8.5824    1.0000 </r>
       <r>    8.5824    1.0000 </r>
       <r>    9.4958    1.0000 </r>
       <r>    9.6881    0.6007 </r>
       <r>    9.6881    0.0098 </r>
       <r>   19.1984    0.0000 </r>
       <r>   19.1984    0.0000 </r>
       <r>   19.4401    0.0000 </r>
       <r>   25.8113    0.0000 </r>
       <r>   25.8113    0.0000 </r>
       <r>   30.6921    0.0000 </r>
       <r>   33.3494    0.0000 </r>
      </set>
      <set comment="kpoint 2">
       <r>  -44.5653    1.0000 </r>
       <r>  -44.5445    1.0000 </r>
       <r>  -44.5229    1.0000 </r>
       <r>  -44.3195    1.0000 </r>
       <r>  -44.2861    1.0000 </r>
       <r>  -44.2783    1.0000 </r>
       <r>    1.8000    1.0000 </r>
       <r>    5.1077    1.0000 </r>
       <r>    5.1097    1.0000 </r>
       <r>    7.2480    1.0000 </r>
       <r>    7.2961    1.0000 </r>
       <r>    7.6006    1.0000 </r>
       <r>    8.4162    1.0000 </r>
       <r>    8.6572    1.0000 </r>
       <r>    9.1050    1.0000 </r>
       <r>    9.3734    1.0210 </r>
       <r>    9.6667    0.1361 </r>
       <r>   17.0977    0.0000 </r>
       <r>   19.9174    0.0000 </r>
       <r>   20.0942    0.0000 </r>
       <r>   25.9628    0.0000 </r>
       <r>   27.1441    0.0000 </r>
       <r>   31.5532    0.0000 </r>
       <r>   32.1453    0.0000 </r>
      </set>
      <set comment="kpoint 3">
       <r>  -44.5625    1.0000 </r>
       <r>  -44.5167    1.0000 </r>
       <r>  -44.4922    1.0000 </r>
       <r>  -44.3670    1.0000 </r>
       <r>  -44.3115    1.0000 </r>
       <r>  -44.2984    1.0000 </r>
       <r>    2.5656    1.0000 </r>
       <r>    5.3688    1.0000 </r>
       <r>    5.4288    1.0000 </r>
       <r>    7.2441    1.0000 </r>
       <r>    7.2890    1.0000 </r>
       <r>    7.8433    1.0000 </r>
       <r>    8.1097    1.0000 </r>
       <r>    8.6075    1.0000 </r>
       <r>    8.7963    1.0000 </r>
       <r>    8.8897    1.0000 </r>
       <r>    9.4869    1.0392 </r>
       <r>   14.5746    0.0000 </r>
       <r>   21.1867    0.0000 </r>
       <r>   21.3570    0.0000 </r>
       <r>   26.2954    0.0000 </r>
       <r>   27.9709    0.0000 </r>
       <r>   29.6294    0.0000 </r>
       <r>   31.2955    0.0000 </r>
      </set>
      <set comment="kpoint 4">
       <r>  -44.5476    1.0000 </r>
       <r>  -44.4788    1.0000 </r>
       <r>  -44.4540    1.0000 </r>
       <r>  -44.4229    1.0000 </r>
       <r>  -44.3470    1.0000 </r>
       <r>  -44.3298    1.0000 </r>
       <r>    3.5879    1.0000 </r>
       <r>    5.5415    1.0000 </r>
       <r>    5.8738    1.0000 </r>
       <r>    7.2471    1.0000 </r>
       <r>    7.3228    1.0000 </r>
       <r>    7.7696    1.0000 </r>
       <r>    8.1314    1.0000 </r>
       <r>    8.1516    1.0000 </r>
       <r>    8.3939    1.0000 </r>
       <r>    9.0203    1.0000 </r>
       <r>    9.2015    1.0386 </r>
       <r>   12.2827    0.0000 </r>
       <r>   22.7937    0.0000 </r>
       <r>   23.0059    0.0000 </r>
       <r>   26.8762    0.0000 </r>
       <r>   27.8752    0.0000 </r>
       <r>   28.6090    0.0000 </r>
       <r>   29.1464    0.0000 </r>
      </set>
      <set comment="kpoint 5">
       <r>  -44.5190    1.0000 </r>
       <r>  -44.4759    1.0000 </r>
       <r>  -44.4349    1.0000 </r>
       <r>  -44.4118    1.0000 </r>
       <r>  -44.3894    1.0000 </r>
       <r>  -44.3689    1.0000 </r>
       <r>    4.6404    1.0000 </r>
       <r>    5.3584    1.0000 </r>
       <r>    6.3960    1.0000 </r>
       <r>    6.9188    1.0000 </r>
       <r>    7.5004    1.0000 </r>
       <r>    7.7326    1.0000 </r>
       <r>    7.7636    1.0000 </r>
       <r>    7.9865    1.0000 </r>
       <r>    8.5004    1.0000 </r>
       <r>    8.8586    1.0000 </r>
       <r>    9.4842    0.9856 </r>
       <r>   10.5198    0.0000 </r>
       <r>   24.5319    0.0000 </r>
       <r>   24.9032    0.0000 </r>
       <r>   26.2267    0.0000 </r>
       <r>   26.9659    0.0000 </r>
       <r>   27.8216    0.0000 </r>
       <r>   29.2508    0.0000 </r>
      </set>
      <set comment="kpoint 6">
       <r>  -44.5794    1.0000 </r>
       <r>  -44.5357    1.0000 </r>
       <r>  -44.4907    1.0000 </r>
       <r>  -44.3607    1.0000 </r>
       <r>  -44.2963    1.0000 </r>
       <r>  -44.2728    1.0000 </r>
       <r>    2.1879    1.0000 </r>
       <r>    5.2406    1.0000 </r>
       <r>    5.2992    1.0000 </r>
       <r>    7.0954    1.0000 </r>
       <r>    7.2391    1.0000 </r>
       <r>    7.8717    1.0000 </r>
       <r>    8.4405    1.0000 </r>
       <r>    8.6125    1.0000 </r>
       <r>    8.6256    1.0000 </r>
       <r>    9.1504    1.0069 </r>
       <r>    9.7357    0.0315 </r>
       <r>   17.1952    0.0000 </r>
       <r>   18.2796    0.0000 </r>
       <r>   20.6495    0.0000 </r>
       <r>   26.6288    0.0000 </r>
       <r>   28.5398    0.0000 </r>
       <r>   29.9222    0.0000 </r>
       <r>   31.9698    0.0000 </r>
      </set>
      <set comment="kpoint 7">
       <r>  -44.5886    1.0000 </r>
       <r>  -44.5101    1.0000 </r>
       <r>  -44.4527    1.0000 </r>
       <r>  -44.4159    1.0000 </r>
       <r>  -44.3193    1.0000 </r>
       <r>  -44.2803    1.0000 </r>
       <r>    2.9144    1.0000 </r>
       <r>    5.4568    1.0000 </r>
       <r>    5.6219    1.0000 </r>
       <r>    6.9898    1.0000 </r>
       <r>    7.1837    1.0000 </r>
       <r>    8.1068    1.0000 </r>
       <r>    8.2018    1.0000 </r>
       <r>    8.2844    1.0000 </r>
       <r>    8.7225    1.0000 </r>
       <r>    8.7260    1.0000 </r>
       <r>    9.6894    0.2896 </r>
       <r>   14.9831    0.0000 </r>
       <r>   19.0109    0.0000 </r>
       <r>   21.7944    0.0000 </r>
       <r>   27.0202    0.0000 </r>
       <r>   27.7476    0.0000 </r>
       <r>   29.9238    0.0000 </r>
       <r>   30.6410    0.0000 </r>
      </set>
      <set comment="kpoint 8">
       <r>  -44.5844    1.0000 </r>
       <r>  -44.4746    1.0000 </r>
       <r>  -44.4739    1.0000 </r>
       <r>  -44.4115    1.0000 </r>
       <r>  -44.3519    1.0000 </r>
       <r>  -44.3013    1.0000 </r>
       <r>    3.8569    1.0000 </r>
       <r>    5.5965    1.0000 </r>
       <r>    6.0131    1.0000 </r>
       <r>    6.9659    1.0000 </r>
       <r>    7.1201    1.0000 </r>
       <r>    7.6683    1.0000 </r>
       <r>    8.0949    1.0000 </r>
       <r>    8.3388    1.0000 </r>
       <r>    8.5656    1.0000 </r>
       <r>    8.9645    1.0000 </r>
       <r>    9.4978    0.9241 </r>
       <r>   12.6527    0.0000 </r>
       <r>   20.3751    0.0000 </r>
       <r>   23.3108    0.0000 </r>
       <r>   25.6600    0.0000 </r>
       <r>   27.5890    0.0000 </r>
       <r>   28.7784    0.0000 </r>
       <r>   30.9257    0.0000 </r>
      </set>
      <set comment="kpoint 9">
       <r>  -44.5633    1.0000 </r>
       <r>  -44.5253    1.0000 </r>
       <r>  -44.4334    1.0000 </r>
       <r>  -44.3912    1.0000 </r>
       <r>  -44.3706    1.0000 </r>
       <r>  -44.3326    1.0000 </r>
       <r>    4.7813    1.0000 </r>
       <r>    5.4049    1.0000 </r>
       <r>    6.4381    1.0000 </r>
       <r>    6.8162    1.0000 </r>
       <r>    7.1512    1.0000 </r>
       <r>    7.3570    1.0000 </r>
       <r>    8.0565    1.0000 </r>
       <r>    8.1298    1.0000 </r>
       <r>    8.8906    1.0000 </r>
       <r>    9.2093    1.0000 </r>
       <r>    9.5421    0.7790 </r>
       <r>   10.7644    0.0000 </r>
       <r>   21.9640    0.0000 </r>
       <r>   23.7286    0.0000 </r>
       <r>   25.0462    0.0000 </r>
       <r>   26.8822    0.0000 </r>
       <r>   28.4943    0.0000 </r>
       <r>   29.8469    0.0000 </r>
      </set>
      <set comment="kpoint 10">
       <r>  -44.6117    1.0000 </r>
       <r>  -44.4895    1.0000 </r>
       <r>  -44.4757    1.0000 </r>
       <r>  -44.4094    1.0000 </r>
       <r>  -44.3370    1.0000 </r>
       <r>  -44.2732    1.0000 </r>
       <r>    3.5375    1.0000 </r>
       <r>    5.5117    1.0000 </r>
       <r>    6.0155    1.0000 </r>
       <r>    6.7730    1.0000 </r>
       <r>    7.1547    1.0000 </r>
       <r>    7.5999    1.0000 </r>
       <r>    8.4280    1.0000 </r>
       <r>    8.4299    1.0000 </r>
       <r>    8.6244    1.0000 </r>
       <r>    8.6664    1.0000 </r>
       <r>    9.8087   -0.0337 </r>
       <r>   14.8626    0.0000 </r>
       <r>   17.4645    0.0000 </r>
       <r>   22.7535    0.0000 </r>
       <r>   25.3829    0.0000 </r>
       <r>   27.3661    0.0000 </r>
       <r>   30.0595    0.0000 </r>
       <r>   32.3854    0.0000 </r>
      </set>
      <set comment="kpoint 11">
       <r>  -44.6209    1.0000 </r>
       <r>  -44.5341    1.0000 </r>
       <r>  -44.4607    1.0000 </r>
       <r>  -44.3678    1.0000 </r>
       <r>  -44.3626    1.0000 </r>
       <r>  -44.2805    1.0000 </r>
       <r>    4.2628    1.0000 </r>
       <r>    5.4688    1.0000 </r>
       <r>    6.4686    1.0000 </r>
       <r>    6.6653    1.0000 </r>
       <r>    7.1906    1.0000 </r>
       <r>    7.2443    1.0000 </r>
       <r>    8.2740    1.0000 </r>
       <r>    8.4062    1.0000 </r>
       <r>    8.8109    1.0000 </r>
       <r>    9.0709    1.0218 </r>
       <r>    9.7588    0.0041 </r>
       <r>   13.0478    0.0000 </r>
       <r>   18.1023    0.0000 </r>
       <r>   23.1671    0.0000 </r>
       <r>   24.0649    0.0000 </r>
       <r>   27.8477    0.0000 </r>
       <r>   28.7847    0.0000 </r>
       <r>   31.4403    0.0000 </r>
      </set>
      <set comment="kpoint 12">
       <r>  -44.6112    1.0000 </r>
       <r>  -44.5812    1.0000 </r>
       <r>  -44.4275    1.0000 </r>
       <r>  -44.3936    1.0000 </r>
       <r>  -44.3305    1.0000 </r>
       <r>  -44.3002    1.0000 </r>
       <r>    4.8667    1.0000 </r>
       <r>    5.2603    1.0000 </r>
       <r>    6.6838    1.0000 </r>
       <r>    6.7721    1.0000 </r>
       <r>    7.0134    1.0000 </r>
       <r>    7.2252    1.0000 </r>
       <r>    8.3138    1.0000 </r>
       <r>    8.3969    1.0000 </r>
       <r>    9.1821    1.0000 </r>
       <r>    9.5477    0.9519 </r>
       <r>    9.7295    0.0300 </r>
       <r>   11.1094    0.0000 </r>
       <r>   19.4877    0.0000 </r>
       <r>   21.1922    0.0000 </r>
       <r>   25.5947    0.0000 </r>
       <r>   27.2060    0.0000 </r>
       <r>   28.6463    0.0000 </r>
       <r>   29.8681    0.0000 </r>
      </set>
      <set comment="kpoint 13">
       <r>  -44.6441    1.0000 </r>
       <r>  -44.5886    1.0000 </r>
       <r>  -44.4414    1.0000 </r>
       <r>  -44.3781    1.0000 </r>
       <r>  -44.3295    1.0000 </r>
       <r>  -44.2735    1.0000 </r>
       <r>    4.6031    1.0000 </r>
       <r>    5.2511    1.0000 </r>
       <r>    6.4687    1.0000 </r>
       <r>    6.7914    1.0000 </r>
       <r>    7.0700    1.0000 </r>
       <r>    7.8007    1.0000 </r>
       <r>    8.3302    1.0000 </r>
       <r>    8.5833    1.0000 </r>
       <r>    8.7325    1.0000 </r>
       <r>    9.5054    0.9632 </r>
       <r>    9.8591   -0.0050 </r>
       <r>   12.6723    0.0000 </r>
       <r>   17.0740    0.0000 </r>
       <r>   20.9316    0.0000 </r>
       <r>   25.1090    0.0000 </r>
       <r>   28.2072    0.0000 </r>
       <r>   28.4077    0.0000 </r>
       <r>   30.7465    0.0000 </r>
      </set>
      <set comment="kpoint 14">
       <r>  -44.6472    1.0000 </r>
       <r>  -44.6282    1.0000 </r>
       <r>  -44.4194    1.0000 </r>
       <r>  -44.3977    1.0000 </r>
       <r>  -44.2994    1.0000 </r>
       <r>  -44.2802    1.0000 </r>
       <r>    4.8282    1.0000 </r>
       <r>    5.0283    1.0000 </r>
       <r>    6.4173    1.0000 </r>
       <r>    6.5267    1.0000 </r>
       <r>    7.6346    1.0000 </r>
       <r>    8.0163    1.0000 </r>
       <r>    8.4785    1.0000 </r>
       <r>    8.6096    1.0000 </r>
       <r>    9.2352    1.0000 </r>
       <r>    9.7483    0.3175 </r>
       <r>   10.0495    0.0000 </r>
       <r>   11.2874    0.0000 </r>
       <r>   17.6510    0.0000 </r>
       <r>   19.0553    0.0000 </r>
       <r>   26.3151    0.0000 </r>
       <r>   27.4986    0.0000 </r>
       <r>   28.8172    0.0000 </r>
       <r>   29.7253    0.0000 </r>
      </set>
      <set comment="kpoint 15">
       <r>  -44.6638    1.0000 </r>
       <r>  -44.6572    1.0000 </r>
       <r>  -44.4109    1.0000 </r>
       <r>  -44.4035    1.0000 </r>
       <r>  -44.2801    1.0000 </r>
       <r>  -44.2734    1.0000 </r>
       <r>    4.7964    1.0000 </r>
       <r>    4.8579    1.0000 </r>
       <r>    6.2882    1.0000 </r>
       <r>    6.3257    1.0000 </r>
       <r>    8.3617    1.0000 </r>
       <r>    8.5995    1.0000 </r>
       <r>    8.6206    1.0000 </r>
       <r>    8.7818    1.0000 </r>
       <r>    9.2765    1.0000 </r>
       <r>    9.7032    0.2838 </r>
       <r>   10.4354    0.0000 </r>
       <r>   10.9857    0.0000 </r>
       <r>   16.9417    0.0000 </r>
       <r>   17.5278    0.0000 </r>
       <r>   27.0338    0.0000 </r>
       <r>   27.4876    0.0000 </r>
       <r>   29.0829    0.0000 </r>
       <r>   29.4274    0.0000 </r>
      </set>
      <set comment="kpoint 16">
       <r>  -44.5637    1.0000 </r>
       <r>  -44.5637    1.0000 </r>
       <r>  -44.4549    1.0000 </r>
       <r>  -44.3982    1.0000 </r>
       <r>  -44.2871    1.0000 </r>
       <r>  -44.2871    1.0000 </r>
       <r>    2.5652    1.0000 </r>
       <r>    5.4277    1.0000 </r>
       <r>    5.4277    1.0000 </r>
       <r>    7.0377    1.0000 </r>
       <r>    7.0377    1.0000 </r>
       <r>    8.0870    1.0000 </r>
       <r>    8.1878    1.0000 </r>
       <r>    8.5301    1.0000 </r>
       <r>    8.5301    1.0000 </r>
       <r>    9.4257    0.9998 </r>
       <r>    9.4257    1.1127 </r>
       <r>   17.8406    0.0000 </r>
       <r>   17.8406    0.0000 </r>
       <r>   19.2350    0.0000 </r>
       <r>   28.7879    0.0000 </r>
       <r>   28.7879    0.0000 </r>
       <r>   29.7388    0.0000 </r>
       <r>   29.7388    0.0000 </r>
      </set>
      <set comment="kpoint 17">
       <r>  -44.5838    1.0000 </r>
       <r>  -44.5338    1.0000 </r>
       <r>  -44.4502    1.0000 </r>
       <r>  -44.4164    1.0000 </r>
       <r>  -44.3143    1.0000 </r>
       <r>  -44.2867    1.0000 </r>
       <r>    3.2641    1.0000 </r>
       <r>    5.6671    1.0000 </r>
       <r>    5.7012    1.0000 </r>
       <r>    6.9049    1.0000 </r>
       <r>    6.9363    1.0000 </r>
       <r>    7.5745    1.0000 </r>
       <r>    8.3842    1.0000 </r>
       <r>    8.5862    1.0000 </r>
       <r>    8.6842    1.0000 </r>
       <r>    8.9729    1.0000 </r>
       <r>    9.5071    0.9531 </r>
       <r>   15.4695    0.0000 </r>
       <r>   18.9546    0.0000 </r>
       <r>   19.8750    0.0000 </r>
       <r>   27.5257    0.0000 </r>
       <r>   28.5410    0.0000 </r>
       <r>   29.3035    0.0000 </r>
       <r>   30.5090    0.0000 </r>
      </set>
      <set comment="kpoint 18">
       <r>  -44.5898    1.0000 </r>
       <r>  -44.5034    1.0000 </r>
       <r>  -44.4932    1.0000 </r>
       <r>  -44.3793    1.0000 </r>
       <r>  -44.3525    1.0000 </r>
       <r>  -44.2973    1.0000 </r>
       <r>    4.1476    1.0000 </r>
       <r>    5.8204    1.0000 </r>
       <r>    5.9803    1.0000 </r>
       <r>    6.7965    1.0000 </r>
       <r>    6.9308    1.0000 </r>
       <r>    7.2694    1.0000 </r>
       <r>    8.2279    1.0000 </r>
       <r>    8.5471    1.0000 </r>
       <r>    8.8095    1.0000 </r>
       <r>    9.1289    1.0000 </r>
       <r>    9.4077    0.9272 </r>
       <r>   13.1240    0.0000 </r>
       <r>   20.3544    0.0000 </r>
       <r>   21.0633    0.0000 </r>
       <r>   25.4924    0.0000 </r>
       <r>   26.4564    0.0000 </r>
       <r>   30.1157    0.0000 </r>
       <r>   31.4546    0.0000 </r>
      </set>
      <set comment="kpoint 19">
       <r>  -44.5781    1.0000 </r>
       <r>  -44.5483    1.0000 </r>
       <r>  -44.4462    1.0000 </r>
       <r>  -44.3978    1.0000 </r>
       <r>  -44.3457    1.0000 </r>
       <r>  -44.3177    1.0000 </r>
       <r>    4.9800    1.0000 </r>
       <r>    5.5628    1.0000 </r>
       <r>    6.3115    1.0000 </r>
       <r>    6.5951    1.0000 </r>
       <r>    7.0954    1.0000 </r>
       <r>    7.2063    1.0000 </r>
       <r>    8.1556    1.0000 </r>
       <r>    8.2568    1.0000 </r>
       <r>    8.9747    1.0000 </r>
       <r>    9.1944    1.0000 </r>
       <r>    9.9053   -0.0493 </r>
       <r>   11.2098    0.0000 </r>
       <r>   21.9287    0.0000 </r>
       <r>   22.5743    0.0000 </r>
       <r>   23.6374    0.0000 </r>
       <r>   24.3845    0.0000 </r>
       <r>   31.2417    0.0000 </r>
       <r>   32.1293    0.0000 </r>
      </set>
      <set comment="kpoint 20">
       <r>  -44.5943    1.0000 </r>
       <r>  -44.5247    1.0000 </r>
       <r>  -44.4982    1.0000 </r>
       <r>  -44.3795    1.0000 </r>
       <r>  -44.3289    1.0000 </r>
       <r>  -44.2889    1.0000 </r>
       <r>    3.8854    1.0000 </r>
       <r>    5.7543    1.0000 </r>
       <r>    6.0647    1.0000 </r>
       <r>    6.7002    1.0000 </r>
       <r>    6.8488    1.0000 </r>
       <r>    7.0962    1.0000 </r>
       <r>    8.4920    1.0000 </r>
       <r>    8.6492    1.0000 </r>
       <r>    8.8046    1.0000 </r>
       <r>    9.0811    1.0000 </r>
       <r>    9.4856    0.8382 </r>
       <r>   15.5500    0.0000 </r>
       <r>   17.5329    0.0000 </r>
       <r>   20.3323    0.0000 </r>
       <r>   25.5628    0.0000 </r>
       <r>   27.9317    0.0000 </r>
       <r>   30.2205    0.0000 </r>
       <r>   30.2805    0.0000 </r>
      </set>
      <set comment="kpoint 21">
       <r>  -44.6070    1.0000 </r>
       <r>  -44.5458    1.0000 </r>
       <r>  -44.4903    1.0000 </r>
       <r>  -44.3611    1.0000 </r>
       <r>  -44.3474    1.0000 </r>
       <r>  -44.2925    1.0000 </r>
       <r>    4.5899    1.0000 </r>
       <r>    5.7260    1.0000 </r>
       <r>    6.3759    1.0000 </r>
       <r>    6.5811    1.0000 </r>
       <r>    6.9020    1.0000 </r>
       <r>    6.9083    1.0000 </r>
       <r>    8.4435    1.0000 </r>
       <r>    8.5436    1.0000 </r>
       <r>    8.7782    1.0000 </r>
       <r>    9.4410    1.0000 </r>
       <r>    9.6494    0.1953 </r>
       <r>   13.7014    0.0000 </r>
       <r>   18.2668    0.0000 </r>
       <r>   21.4235    0.0000 </r>
       <r>   23.3772    0.0000 </r>
       <r>   26.4167    0.0000 </r>
       <r>   30.0174    0.0000 </r>
       <r>   30.7687    0.0000 </r>
      </set>
      <set comment="kpoint 22">
       <r>  -44.6047    1.0000 </r>
       <r>  -44.5836    1.0000 </r>
       <r>  -44.4470    1.0000 </r>
       <r>  -44.4022    1.0000 </r>
       <r>  -44.3215    1.0000 </r>
       <r>  -44.3031    1.0000 </r>
       <r>    5.1413    1.0000 </r>
       <r>    5.5055    1.0000 </r>
       <r>    6.4611    1.0000 </r>
       <r>    6.5122    1.0000 </r>
       <r>    7.0557    1.0000 </r>
       <r>    7.0704    1.0000 </r>
       <r>    8.4045    1.0000 </r>
       <r>    8.4214    1.0000 </r>
       <r>    8.9783    1.0000 </r>
       <r>    9.2456    1.0149 </r>
       <r>   10.4639   -0.0551 </r>
       <r>   11.8105    0.0000 </r>
       <r>   19.6870    0.0000 </r>
       <r>   21.4021    0.0000 </r>
       <r>   22.8362    0.0000 </r>
       <r>   24.5264    0.0000 </r>
       <r>   30.5812    0.0000 </r>
       <r>   31.0087    0.0000 </r>
      </set>
      <set comment="kpoint 23">
       <r>  -44.6250    1.0000 </r>
       <r>  -44.5873    1.0000 </r>
       <r>  -44.4679    1.0000 </r>
       <r>  -44.3796    1.0000 </r>
       <r>  -44.3219    1.0000 </r>
       <r>  -44.2908    1.0000 </r>
       <r>    4.9327    1.0000 </r>
[...]
       </set>
       <set comment="band 12">
        <r>  0.0000  0.0379  0.0000  0.0366  0.0001  0.1069  0.0001  0.1108  0.0990 </r>
        <r>  0.0000  0.0379  0.0000  0.0366  0.0001  0.1069  0.0001  0.1108  0.0990 </r>
       </set>
       <set comment="band 13">
        <r>  0.0000  0.0011  0.0007  0.0002  0.0478  0.0163  0.1777  0.0754  0.1680 </r>
        <r>  0.0000  0.0011  0.0007  0.0002  0.0478  0.0163  0.1777  0.0754  0.1680 </r>
       </set>
       <set comment="band 14">
        <r>  0.0000  0.0003  0.0007  0.0011  0.0452  0.0767  0.1680  0.0176  0.1777 </r>
        <r>  0.0000  0.0003  0.0007  0.0011  0.0452  0.0767  0.1680  0.0176  0.1777 </r>
       </set>
       <set comment="band 15">
        <r>  0.0000  0.0000  0.0000  0.0000  0.0195  0.0006  0.3734  0.0154  0.0795 </r>
        <r>  0.0000  0.0000  0.0000  0.0000  0.0195  0.0006  0.3734  0.0154  0.0795 </r>
       </set>
       <set comment="band 16">
        <r>  0.0000  0.0000  0.0000  0.0000  0.0042  0.0231  0.0795  0.0083  0.3734 </r>
        <r>  0.0000  0.0000  0.0000  0.0000  0.0042  0.0231  0.0795  0.0083  0.3734 </r>
       </set>
       <set comment="band 17">
        <r>  0.0250  0.0199  0.0199  0.0199  0.1216  0.1216  0.0000  0.1216  0.0000 </r>
        <r>  0.0250  0.0199  0.0199  0.0199  0.1216  0.1216  0.0000  0.1216  0.0000 </r>
       </set>
       <set comment="band 18">
        <r>  0.0000  0.0682  0.1027  0.0035  0.1003  0.0035  0.0473  0.0666  0.0062 </r>
        <r>  0.0000  0.0682  0.1027  0.0035  0.1003  0.0035  0.0473  0.0666  0.0062 </r>
       </set>
       <set comment="band 19">
        <r>  0.0000  0.0481  0.0136  0.1127  0.0133  0.1101  0.0062  0.0470  0.0473 </r>
        <r>  0.0000  0.0481  0.0136  0.1127  0.0133  0.1101  0.0062  0.0470  0.0473 </r>
       </set>
       <set comment="band 20">
        <r>  0.2671  0.0000  0.0000  0.0000  0.0373  0.0373  0.0000  0.0373  0.0000 </r>
        <r>  0.2671  0.0000  0.0000  0.0000  0.0373  0.0373  0.0000  0.0373  0.0000 </r>
       </set>
       <set comment="band 21">
        <r>  0.0000  0.0104  0.1089  0.0530  0.0990  0.0482  0.0204  0.0094  0.0011 </r>
        <r>  0.0000  0.0104  0.1089  0.0530  0.0990  0.0482  0.0204  0.0094  0.0011 </r>
       </set>
       <set comment="band 22">
        <r>  0.0000  0.1045  0.0059  0.0619  0.0054  0.0562  0.0011  0.0950  0.0204 </r>
        <r>  0.0000  0.1045  0.0059  0.0619  0.0054  0.0562  0.0011  0.0950  0.0204 </r>
       </set>
       <set comment="band 23">
        <r>  0.2449  0.0532  0.0532  0.0532  0.0018  0.0018  0.0000  0.0018  0.0000 </r>
        <r>  0.2449  0.0532  0.0532  0.0532  0.0018  0.0018  0.0000  0.0018  0.0000 </r>
       </set>
       <set comment="band 24">
        <r>  0.0491  0.0820  0.0820  0.0820  0.0283  0.0283  0.0000  0.0283  0.0000 </r>
        <r>  0.0491  0.0820  0.0820  0.0820  0.0283  0.0283  0.0000  0.0283  0.0000 </r>
       </set>
      </set>
      <set comment="kpoint 33">
       <set comment="band 1">
        <r>  0.0000  0.1309  0.1309  0.2343  0.0000  0.0000  0.0000  0.0000  0.0000 </r>
        <r>  0.0000  0.1309  0.1309  0.2343  0.0000  0.0000  0.0000  0.0000  0.0000 </r>
       </set>
       <set comment="band 2">
        <r>  0.0000  0.1038  0.1038  0.2886  0.0000  0.0001  0.0000  0.0000  0.0000 </r>
        <r>  0.0000  0.1038  0.1038  0.2886  0.0000  0.0001  0.0000  0.0000  0.0000 </r>
       </set>
       <set comment="band 3">
        <r>  0.0000  0.2486  0.2486  0.0000  0.0001  0.0000  0.0000  0.0001  0.0000 </r>
        <r>  0.0000  0.2486  0.2486  0.0000  0.0001  0.0000  0.0000  0.0001  0.0000 </r>
       </set>
       <set comment="band 4">
        <r>  0.0000  0.2489  0.2489  0.0000  0.0001  0.0000  0.0000  0.0001  0.0000 </r>
        <r>  0.0000  0.2489  0.2489  0.0000  0.0001  0.0000  0.0000  0.0001  0.0000 </r>
       </set>
       <set comment="band 5">
        <r>  0.0000  0.1178  0.1178  0.2630  0.0000  0.0001  0.0000  0.0000  0.0000 </r>
        <r>  0.0000  0.1178  0.1178  0.2630  0.0000  0.0001  0.0000  0.0000  0.0000 </r>
       </set>
       <set comment="band 6">
        <r>  0.0000  0.1450  0.1450  0.2087  0.0000  0.0000  0.0000  0.0000  0.0000 </r>
        <r>  0.0000  0.1450  0.1450  0.2087  0.0000  0.0000  0.0000  0.0000  0.0000 </r>
       </set>
       <set comment="band 7">
        <r>  0.0459  0.0252  0.0252  0.0113  0.1268  0.0025  0.0032  0.1268  0.0096 </r>
        <r>  0.0459  0.0252  0.0252  0.0113  0.1268  0.0025  0.0032  0.1268  0.0096 </r>
       </set>
       <set comment="band 8">
        <r>  0.0268  0.0108  0.0108  0.0011  0.1524  0.0490  0.0030  0.1524  0.0089 </r>
        <r>  0.0268  0.0108  0.0108  0.0011  0.1524  0.0490  0.0030  0.1524  0.0089 </r>
       </set>
       <set comment="band 9">
        <r>  0.0000  0.0194  0.0194  0.0000  0.1695  0.0000  0.0317  0.1695  0.0106 </r>
        <r>  0.0000  0.0194  0.0194  0.0000  0.1695  0.0000  0.0317  0.1695  0.0106 </r>
       </set>
       <set comment="band 10">
        <r>  0.0000  0.0281  0.0281  0.0000  0.1425  0.0000  0.0486  0.1425  0.0162 </r>
        <r>  0.0000  0.0281  0.0281  0.0000  0.1425  0.0000  0.0486  0.1425  0.0162 </r>
       </set>
       <set comment="band 11">
        <r>  0.0064  0.0025  0.0025  0.0523  0.0082  0.3292  0.0001  0.0082  0.0002 </r>
        <r>  0.0064  0.0025  0.0025  0.0523  0.0082  0.3292  0.0001  0.0082  0.0002 </r>
       </set>
       <set comment="band 12">
        <r>  0.0019  0.0092  0.0092  0.0634  0.0021  0.2760  0.0073  0.0021  0.0219 </r>
        <r>  0.0019  0.0092  0.0092  0.0634  0.0021  0.2760  0.0073  0.0021  0.0219 </r>
       </set>
       <set comment="band 13">
        <r>  0.0000  0.0003  0.0003  0.0000  0.0451  0.0000  0.2976  0.0451  0.0992 </r>
        <r>  0.0000  0.0003  0.0003  0.0000  0.0451  0.0000  0.2976  0.0451  0.0992 </r>
       </set>
       <set comment="band 14">
        <r>  0.0000  0.0001  0.0001  0.0000  0.0288  0.0000  0.3227  0.0288  0.1076 </r>
        <r>  0.0000  0.0001  0.0001  0.0000  0.0288  0.0000  0.3227  0.0288  0.1076 </r>
       </set>
       <set comment="band 15">
        <r>  0.0005  0.0001  0.0001  0.0006  0.0171  0.0290  0.1064  0.0171  0.3191 </r>
        <r>  0.0005  0.0001  0.0001  0.0006  0.0171  0.0290  0.1064  0.0171  0.3191 </r>
       </set>
       <set comment="band 16">
        <r>  0.0004  0.0000  0.0000  0.0001  0.0103  0.0000  0.1173  0.0103  0.3520 </r>
        <r>  0.0004  0.0000  0.0000  0.0001  0.0103  0.0000  0.1173  0.0103  0.3520 </r>
       </set>
       <set comment="band 17">
        <r>  0.0297  0.0216  0.0216  0.0427  0.0915  0.1260  0.0015  0.0915  0.0044 </r>
        <r>  0.0297  0.0216  0.0216  0.0427  0.0915  0.1260  0.0015  0.0915  0.0044 </r>
       </set>
       <set comment="band 18">
        <r>  0.0210  0.0248  0.0248  0.0800  0.0612  0.1103  0.0066  0.0612  0.0199 </r>
        <r>  0.0210  0.0248  0.0248  0.0800  0.0612  0.1103  0.0066  0.0612  0.0199 </r>
       </set>
       <set comment="band 19">
        <r>  0.0000  0.0895  0.0895  0.0000  0.0849  0.0000  0.0286  0.0849  0.0095 </r>
        <r>  0.0000  0.0895  0.0895  0.0000  0.0849  0.0000  0.0286  0.0849  0.0095 </r>
       </set>
       <set comment="band 20">
        <r>  0.2319  0.0017  0.0017  0.0348  0.0264  0.0509  0.0000  0.0264  0.0001 </r>
        <r>  0.2319  0.0017  0.0017  0.0348  0.0264  0.0509  0.0000  0.0264  0.0001 </r>
       </set>
       <set comment="band 21">
        <r>  0.0000  0.0892  0.0892  0.0000  0.0826  0.0000  0.0211  0.0826  0.0070 </r>
        <r>  0.0000  0.0892  0.0892  0.0000  0.0826  0.0000  0.0211  0.0826  0.0070 </r>
       </set>
       <set comment="band 22">
        <r>  0.1597  0.0007  0.0007  0.1012  0.0255  0.0525  0.0005  0.0255  0.0016 </r>
        <r>  0.1597  0.0007  0.0007  0.1012  0.0255  0.0525  0.0005  0.0255  0.0016 </r>
       </set>
       <set comment="band 23">
        <r>  0.1181  0.0857  0.0857  0.0170  0.0121  0.0431  0.0011  0.0121  0.0032 </r>
        <r>  0.1181  0.0857  0.0857  0.0170  0.0121  0.0431  0.0011  0.0121  0.0032 </r>
       </set>
       <set comment="band 24">
        <r>  0.0730  0.0849  0.0849  0.0489  0.0226  0.0369  0.0002  0.0226  0.0007 </r>
        <r>  0.0730  0.0849  0.0849  0.0489  0.0226  0.0369  0.0002  0.0226  0.0007 </r>
       </set>
      </set>
      <set comment="kpoint 34">
       <set comment="band 1">
        <r>  0.0000  0.2222  0.0517  0.2222  0.0000  0.0001  0.0000  0.0001  0.0000 </r>
        <r>  0.0000  0.2222  0.0517  0.2222  0.0000  0.0001  0.0000  0.0001  0.0000 </r>
       </set>
       <set comment="band 2">
        <r>  0.0000  0.2482  0.0000  0.2482  0.0000  0.0001  0.0000  0.0001  0.0000 </r>
        <r>  0.0000  0.2482  0.0000  0.2482  0.0000  0.0001  0.0000  0.0001  0.0000 </r>
       </set>
       <set comment="band 3">
        <r>  0.0000  0.0373  0.4226  0.0373  0.0001  0.0000  0.0000  0.0000  0.0000 </r>
        <r>  0.0000  0.0373  0.4226  0.0373  0.0001  0.0000  0.0000  0.0000  0.0000 </r>
       </set>
       <set comment="band 4">
        <r>  0.0000  0.0259  0.4458  0.0259  0.0001  0.0000  0.0000  0.0000  0.0000 </r>
        <r>  0.0000  0.0259  0.4458  0.0259  0.0001  0.0000  0.0000  0.0000  0.0000 </r>
       </set>
       <set comment="band 5">
        <r>  0.0000  0.2491  0.0000  0.2491  0.0000  0.0001  0.0000  0.0001  0.0000 </r>
        <r>  0.0000  0.2491  0.0000  0.2491  0.0000  0.0001  0.0000  0.0001  0.0000 </r>
       </set>
       <set comment="band 6">
        <r>  0.0000  0.2118  0.0749  0.2118  0.0000  0.0000  0.0000  0.0000  0.0000 </r>
        <r>  0.0000  0.2118  0.0749  0.2118  0.0000  0.0000  0.0000  0.0000  0.0000 </r>
       </set>
       <set comment="band 7">
        <r>  0.0191  0.0005  0.0314  0.0005  0.2657  0.0363  0.0218  0.0363  0.0000 </r>
        <r>  0.0191  0.0005  0.0314  0.0005  0.2657  0.0363  0.0218  0.0363  0.0000 </r>
       </set>
       <set comment="band 8">
        <r>  0.0234  0.0027  0.0441  0.0027  0.2942  0.0011  0.0273  0.0011  0.0000 </r>
        <r>  0.0234  0.0027  0.0441  0.0027  0.2942  0.0011  0.0273  0.0011  0.0000 </r>
       </set>
       <set comment="band 9">
        <r>  0.0000  0.0139  0.0000  0.0139  0.0000  0.2001  0.0000  0.2001  0.0032 </r>
        <r>  0.0000  0.0139  0.0000  0.0139  0.0000  0.2001  0.0000  0.2001  0.0032 </r>
       </set>
       <set comment="band 10">
        <r>  0.0001  0.0137  0.0131  0.0137  0.0407  0.1615  0.0168  0.1615  0.0000 </r>
        <r>  0.0001  0.0137  0.0131  0.0137  0.0407  0.1615  0.0168  0.1615  0.0000 </r>
       </set>
       <set comment="band 11">
        <r>  0.0048  0.0441  0.0000  0.0441  0.0144  0.1384  0.0039  0.1384  0.0000 </r>
        <r>  0.0048  0.0441  0.0000  0.0441  0.0144  0.1384  0.0039  0.1384  0.0000 </r>
       </set>
       <set comment="band 12">
        <r>  0.0000  0.0468  0.0000  0.0468  0.0000  0.1399  0.0000  0.1399  0.0134 </r>
        <r>  0.0000  0.0468  0.0000  0.0468  0.0000  0.1399  0.0000  0.1399  0.0134 </r>
       </set>
       <set comment="band 13">
        <r>  0.0003  0.0000  0.0002  0.0000  0.0502  0.0026  0.4336  0.0026  0.0000 </r>
        <r>  0.0003  0.0000  0.0002  0.0000  0.0502  0.0026  0.4336  0.0026  0.0000 </r>
       </set>
       <set comment="band 14">
        <r>  0.0002  0.0000  0.0001  0.0000  0.0427  0.0008  0.4450  0.0008  0.0000 </r>
        <r>  0.0002  0.0000  0.0001  0.0000  0.0427  0.0008  0.4450  0.0008  0.0000 </r>
       </set>
       <set comment="band 15">
        <r>  0.0000  0.0001  0.0000  0.0001  0.0000  0.0101  0.0000  0.0101  0.4705 </r>
        <r>  0.0000  0.0001  0.0000  0.0001  0.0000  0.0101  0.0000  0.0101  0.4705 </r>
       </set>
       <set comment="band 16">
        <r>  0.0000  0.0000  0.0000  0.0000  0.0000  0.0022  0.0000  0.0022  0.4866 </r>
        <r>  0.0000  0.0000  0.0000  0.0000  0.0000  0.0022  0.0000  0.0022  0.4866 </r>
       </set>
       <set comment="band 17">
        <r>  0.0247  0.0518  0.0134  0.0518  0.0493  0.1095  0.0012  0.1095  0.0000 </r>
        <r>  0.0247  0.0518  0.0134  0.0518  0.0493  0.1095  0.0012  0.1095  0.0000 </r>
       </set>
       <set comment="band 18">
        <r>  0.0000  0.0794  0.0000  0.0794  0.0000  0.1149  0.0000  0.1149  0.0083 </r>
        <r>  0.0000  0.0794  0.0000  0.0794  0.0000  0.1149  0.0000  0.1149  0.0083 </r>
       </set>
       <set comment="band 19">
        <r>  0.0991  0.0059  0.0800  0.0059  0.1796  0.0017  0.0206  0.0017  0.0000 </r>
        <r>  0.0991  0.0059  0.0800  0.0059  0.1796  0.0017  0.0206  0.0017  0.0000 </r>
       </set>
       <set comment="band 20">
        <r>  0.0892  0.0268  0.0583  0.0268  0.1384  0.0142  0.0157  0.0142  0.0000 </r>
        <r>  0.0892  0.0268  0.0583  0.0268  0.1384  0.0142  0.0157  0.0142  0.0000 </r>
       </set>
       <set comment="band 21">
        <r>  0.1381  0.0378  0.0332  0.0378  0.0002  0.0587  0.0034  0.0587  0.0000 </r>
        <r>  0.1381  0.0378  0.0332  0.0378  0.0002  0.0587  0.0034  0.0587  0.0000 </r>
       </set>
       <set comment="band 22">
        <r>  0.0000  0.0874  0.0000  0.0874  0.0000  0.0867  0.0000  0.0867  0.0026 </r>
        <r>  0.0000  0.0874  0.0000  0.0874  0.0000  0.0867  0.0000  0.0867  0.0026 </r>
       </set>
       <set comment="band 23">
        <r>  0.2256  0.0023  0.1336  0.0023  0.0182  0.0013  0.0047  0.0013  0.0000 </r>
        <r>  0.2256  0.0023  0.1336  0.0023  0.0182  0.0013  0.0047  0.0013  0.0000 </r>
       </set>
       <set comment="band 24">
        <r>  0.1095  0.0462  0.0933  0.0462  0.0206  0.0284  0.0014  0.0284  0.0000 </r>
        <r>  0.1095  0.0462  0.0933  0.0462  0.0206  0.0284  0.0014  0.0284  0.0000 </r>
       </set>
      </set>
      <set comment="kpoint 35">
       <set comment="band 1">
        <r>  0.0000  0.1655  0.1655  0.1655  0.0000  0.0000  0.0000  0.0000  0.0000 </r>
        <r>  0.0000  0.1655  0.1655  0.1655  0.0000  0.0000  0.0000  0.0000  0.0000 </r>
       </set>
       <set comment="band 2">
        <r>  0.0000  0.0823  0.0894  0.3253  0.0000  0.0001  0.0000  0.0000  0.0000 </r>
        <r>  0.0000  0.0823  0.0894  0.3253  0.0000  0.0001  0.0000  0.0000  0.0000 </r>
       </set>
       <set comment="band 3">
        <r>  0.0000  0.2491  0.2419  0.0060  0.0001  0.0000  0.0000  0.0001  0.0000 </r>
        <r>  0.0000  0.2491  0.2419  0.0060  0.0001  0.0000  0.0000  0.0001  0.0000 </r>
       </set>
       <set comment="band 4">
        <r>  0.0000  0.1726  0.0899  0.2352  0.0000  0.0001  0.0000  0.0001  0.0000 </r>
        <r>  0.0000  0.1726  0.0899  0.2352  0.0000  0.0001  0.0000  0.0001  0.0000 </r>
       </set>
       <set comment="band 5">
        <r>  0.0000  0.1591  0.2419  0.0966  0.0001  0.0000  0.0000  0.0000  0.0000 </r>
        <r>  0.0000  0.1591  0.2419  0.0966  0.0001  0.0000  0.0000  0.0000  0.0000 </r>
       </set>
       <set comment="band 6">
        <r>  0.0000  0.1660  0.1660  0.1660  0.0000  0.0000  0.0000  0.0000  0.0000 </r>
        <r>  0.0000  0.1660  0.1660  0.1660  0.0000  0.0000  0.0000  0.0000  0.0000 </r>
       </set>
       <set comment="band 7">
        <r>  0.0055  0.0117  0.0117  0.0117  0.1269  0.1269  0.0000  0.1269  0.0000 </r>
        <r>  0.0055  0.0117  0.0117  0.0117  0.1269  0.1269  0.0000  0.1269  0.0000 </r>
       </set>
       <set comment="band 8">
        <r>  0.0000  0.0200  0.0013  0.0243  0.0106  0.1956  0.0002  0.1608  0.0050 </r>
        <r>  0.0000  0.0200  0.0013  0.0243  0.0106  0.1956  0.0002  0.1608  0.0050 </r>
       </set>
       <set comment="band 9">
        <r>  0.0000  0.0104  0.0291  0.0061  0.2341  0.0490  0.0050  0.0839  0.0002 </r>
        <r>  0.0000  0.0104  0.0291  0.0061  0.2341  0.0490  0.0050  0.0839  0.0002 </r>
       </set>
       <set comment="band 10">
        <r>  0.0089  0.0261  0.0261  0.0261  0.1011  0.1011  0.0000  0.1011  0.0000 </r>
        <r>  0.0089  0.0261  0.0261  0.0261  0.1011  0.1011  0.0000  0.1011  0.0000 </r>
       </set>
       <set comment="band 11">
        <r>  0.0000  0.0115  0.0448  0.0111  0.2176  0.0541  0.0081  0.0557  0.0000 </r>
        <r>  0.0000  0.0115  0.0448  0.0111  0.2176  0.0541  0.0081  0.0557  0.0000 </r>
       </set>
       <set comment="band 12">
        <r>  0.0000  0.0335  0.0001  0.0338  0.0007  0.1642  0.0000  0.1626  0.0081 </r>
        <r>  0.0000  0.0335  0.0001  0.0338  0.0007  0.1642  0.0000  0.1626  0.0081 </r>
       </set>
       <set comment="band 13">
        <r>  0.0000  0.0000  0.0000  0.0000  0.0000  0.0061  0.0002  0.0058  0.4790 </r>
        <r>  0.0000  0.0000  0.0000  0.0000  0.0000  0.0061  0.0002  0.0058  0.4790 </r>
       </set>
       <set comment="band 14">
        <r>  0.0000  0.0000  0.0000  0.0000  0.0080  0.0019  0.4790  0.0021  0.0002 </r>
        <r>  0.0000  0.0000  0.0000  0.0000  0.0080  0.0019  0.4790  0.0021  0.0002 </r>
       </set>
       <set comment="band 15">
        <r>  0.0000  0.0000  0.0000  0.0000  0.0014  0.0018  0.1334  0.0042  0.3505 </r>
        <r>  0.0000  0.0000  0.0000  0.0000  0.0014  0.0018  0.1334  0.0042  0.3505 </r>
       </set>
       <set comment="band 16">
        <r>  0.0000  0.0000  0.0000  0.0000  0.0035  0.0031  0.3505  0.0007  0.1334 </r>
        <r>  0.0000  0.0000  0.0000  0.0000  0.0035  0.0031  0.3505  0.0007  0.1334 </r>
       </set>
       <set comment="band 17">
        <r>  0.0277  0.0451  0.0451  0.0451  0.0781  0.0781  0.0000  0.0781  0.0000 </r>
        <r>  0.0277  0.0451  0.0451  0.0451  0.0781  0.0781  0.0000  0.0781  0.0000 </r>
       </set>
       <set comment="band 18">
        <r>  0.0000  0.0016  0.0952  0.0750  0.1155  0.0910  0.0043  0.0019  0.0009 </r>
        <r>  0.0000  0.0016  0.0952  0.0750  0.1155  0.0910  0.0043  0.0019  0.0009 </r>
       </set>
       <set comment="band 19">
        <r>  0.0000  0.1130  0.0193  0.0395  0.0235  0.0479  0.0009  0.1370  0.0043 </r>
        <r>  0.0000  0.1130  0.0193  0.0395  0.0235  0.0479  0.0009  0.1370  0.0043 </r>
       </set>
       <set comment="band 20">
        <r>  0.1934  0.0188  0.0188  0.0188  0.0421  0.0421  0.0000  0.0421  0.0000 </r>
        <r>  0.1934  0.0188  0.0188  0.0188  0.0421  0.0421  0.0000  0.0421  0.0000 </r>
       </set>
       <set comment="band 21">
        <r>  0.0000  0.0600  0.1033  0.0135  0.1117  0.0146  0.0031  0.0649  0.0004 </r>
        <r>  0.0000  0.0600  0.1033  0.0135  0.1117  0.0146  0.0031  0.0649  0.0004 </r>
       </set>
       <set comment="band 22">
        <r>  0.0000  0.0579  0.0146  0.1044  0.0158  0.1128  0.0004  0.0626  0.0031 </r>
        <r>  0.0000  0.0579  0.0146  0.1044  0.0158  0.1128  0.0004  0.0626  0.0031 </r>
       </set>
       <set comment="band 23">
        <r>  0.3402  0.0133  0.0133  0.0133  0.0007  0.0007  0.0000  0.0007  0.0000 </r>
        <r>  0.3402  0.0133  0.0133  0.0133  0.0007  0.0007  0.0000  0.0007  0.0000 </r>
       </set>
       <set comment="band 24">
        <r>  0.1773  0.0433  0.0433  0.0433  0.0226  0.0226  0.0000  0.0226  0.0000 </r>
        <r>  0.1773  0.0433  0.0433  0.0433  0.0226  0.0226  0.0000  0.0226  0.0000 </r>
       </set>
      </set>
     </set>
    </set>
   </array>
  </projected>
 </calculation>
 <structure name="finalpos" >
  <crystal>
   <varray name="basis" >
    <v>       2.84005200       0.00000000       0.00000000 </v>
    <v>       0.00000000       2.84005200       0.00000000 </v>
    <v>       0.00000000       0.00000000       2.84005200 </v>
   </varray>
   <i name="volume">     22.90756226 </i>
   <varray name="rec_basis" >
    <v>       0.35210623       0.00000000       0.00000000 </v>
    <v>       0.00000000       0.35210623       0.00000000 </v>
    <v>       0.00000000       0.00000000       0.35210623 </v>
   </varray>
  </crystal>
  <varray name="positions" >
   <v>       0.00000000       0.00000000       0.00000000 </v>
   <v>       0.50000000       0.50000000       0.50000000 </v>
  </varray>
 </structure>
</modeling>
