=========================================
SLURM_JOB_ID = 63455423
SLURM_JOB_NODELIST = lnode22
SLURM_GPUS = 
SLURM_CPUS_ON_NODE = 8
SLURM_JOB_PARTITION = lenovo
SLURM_TASK_PID = 1789775
CUDA_VISIBLE_DEVICES = 
==========================================
 running on    8 total cores
 distrk:  each k-point on    8 cores,    1 groups
 distr:  one band on    4 cores,    2 groups
 using from now: INCAR     
 vasp.5.4.4.18Apr17-6-g9f103f2a35 (build Apr 28 2018 00:24:27) complex          
  
 POSCAR found type information on POSCAR  Co
 POSCAR found :  1 types and       2 ions
 scaLAPACK will be used

 ----------------------------------------------------------------------------- 
|                                                                             |
|  ADVICE TO THIS USER RUNNING 'VASP/VAMP'   (HEAR YOUR MASTER'S VOICE ...):  |
|                                                                             |
|      You have a (more or less) 'small supercell' and for smaller cells      |
|      it is recommended  to use the reciprocal-space projection scheme!      |
|      The real space optimization is not  efficient for small cells and it   |
|      is also less accurate ...                                              |
|      Therefore set LREAL=.FALSE. in the  INCAR file                         |
|                                                                             |
 ----------------------------------------------------------------------------- 

 LDA part: xc-table for Pade appr. of Perdew
 POSCAR, INCAR and KPOINTS ok, starting setup
 FFT: planning ...
 WAVECAR not read
 entering main loop
       N       E                     dE             d eps       ncg     rms          rms(c)
DAV:   1     0.895720595506E+02    0.89572E+02   -0.88963E+03  4280   0.184E+03
DAV:   2    -0.137560320974E+02   -0.10333E+03   -0.96664E+02  4268   0.284E+02
DAV:   3    -0.161943491852E+02   -0.24383E+01   -0.23608E+01  4838   0.636E+01
DAV:   4    -0.162267807808E+02   -0.32432E-01   -0.32433E-01  6056   0.576E+00
DAV:   5    -0.162271785450E+02   -0.39776E-03   -0.39799E-03  5030   0.582E-01    0.145E+01
DAV:   6    -0.142632449426E+02    0.19639E+01   -0.16526E+01  4484   0.840E+01    0.796E+00
DAV:   7    -0.139291928140E+02    0.33405E+00   -0.23005E+00  4688   0.300E+01    0.482E+00
DAV:   8    -0.140787846976E+02   -0.14959E+00   -0.15153E-01  5740   0.638E+00    0.217E+00
DAV:   9    -0.140358518293E+02    0.42933E-01   -0.34514E-02  6170   0.281E+00    0.237E+00
DAV:  10    -0.140256005035E+02    0.10251E-01   -0.96216E-04  6056   0.451E-01    0.266E+00
DAV:  11    -0.140703748532E+02   -0.44774E-01   -0.32543E-02  5256   0.304E+00    0.424E-01
DAV:  12    -0.140708232251E+02   -0.44837E-03   -0.98795E-04  6082   0.385E-01    0.155E-01
DAV:  13    -0.140706182502E+02    0.20497E-03   -0.16707E-04  5646   0.212E-01    0.884E-03
DAV:  14    -0.140706070156E+02    0.11235E-04   -0.63523E-06  4776   0.284E-02    0.883E-03
DAV:  15    -0.140706143343E+02   -0.73187E-05   -0.32011E-07  4818   0.729E-03    0.476E-03
DAV:  16    -0.140706232516E+02   -0.89174E-05   -0.19972E-07  3126   0.671E-03    0.501E-04
DAV:  17    -0.140706225935E+02    0.65813E-06   -0.11847E-08  2326   0.146E-03    0.371E-04
DAV:  18    -0.140706235016E+02   -0.90811E-06   -0.30207E-09  2260   0.804E-04    0.694E-05
DAV:  19    -0.140706234544E+02    0.47256E-07   -0.87478E-10  2224   0.310E-04
   1 F= -.14070623E+02 E0= -.14070623E+02  d E =0.000000E+00  mag=     3.1560
