 vasp.5.4.4.18Apr17-6-g9f103f2a35 (build Apr 28 2018 00:24:27) complex          
  
 executed on             LinuxIFC date 2021.09.07  01:10:58
 running on   24 total cores
 distrk:  each k-point on   24 cores,    1 groups
 distr:  one band on NCORES_PER_BAND=   4 cores,    6 groups


--------------------------------------------------------------------------------------------------------


 INCAR:
 POTCAR:    PAW_PBE Fe_pv 02Aug2007               
 POTCAR:    PAW_PBE Fe_pv 02Aug2007               
   VRHFIN =Fe:  3pd7s1                                                          
   LEXCH  = PE                                                                  
   EATOM  =  2457.4239 eV,  180.6156 Ry                                         
                                                                                
   TITEL  = PAW_PBE Fe_pv 02Aug2007                                             
   LULTRA =        F    use ultrasoft PP ?                                      
   IUNSCR =        1    unscreen: 0-lin 1-nonlin 2-no                           
   RPACOR =    1.750    partial core radius                                     
   POMASS =   55.847; ZVAL   =   14.000    mass and valenz                      
   RCORE  =    2.200    outmost cutoff radius                                   
   RWIGS  =    2.200; RWIGS  =    1.164    wigner-seitz radius (au A)           
   ENMAX  =  293.238; ENMIN  =  219.928 eV                                      
   ICORE  =        3    local potential                                         
   LCOR   =        T    correct aug charges                                     
   LPAW   =        T    paw PP                                                  
   EAUG   =  578.342                                                            
   DEXC   =    0.000                                                            
   RMAX   =    2.249    core radius for proj-oper                               
   RAUG   =    1.300    factor for augmentation sphere                          
   RDEP   =    2.296    radius for radial grids                                 
   RDEPT  =    1.766    core radius for aug-charge                              
                                                                                
   Atomic configuration                                                         
    8 entries                                                                   
     n  l   j            E        occ.                                          
     1  0  0.50     -6993.8440   2.0000                                         
     2  0  0.50      -814.6047   2.0000                                         
     2  1  1.50      -693.3689   6.0000                                         
     3  0  0.50       -89.4732   2.0000                                         
     3  1  1.50       -55.6373   6.0000                                         
     3  2  2.50        -3.8151   7.0000                                         
     4  0  0.50        -4.2551   1.0000                                         
     4  3  2.50        -1.3606   0.0000                                         
   Description                                                                  
     l       E           TYP  RCUT    TYP  RCUT                                 
     1    -55.6372668     23  2.000                                             
     1     -5.4423304     23  2.000                                             
     2     -3.8151096     23  2.200                                             
     2     -5.1756922     23  2.200                                             
     0     -4.2550951     23  2.200                                             
     0     27.2116520     23  2.200                                             
     3     -1.3605826     23  2.200                                             
  local pseudopotential read in
  partial core-charges read in
  partial kinetic energy density read in
  atomic valenz-charges read in
  non local Contribution for L=           1  read in
    real space projection operators read in
  non local Contribution for L=           1  read in
    real space projection operators read in
  non local Contribution for L=           2  read in
    real space projection operators read in
  non local Contribution for L=           2  read in
    real space projection operators read in
  non local Contribution for L=           0  read in
    real space projection operators read in
  non local Contribution for L=           0  read in
    real space projection operators read in
    PAW grid and wavefunctions read in
 
   number of l-projection  operators is LMAX  =           6
   number of lm-projection operators is LMMAX =          18
 

 ----------------------------------------------------------------------------- 
|                                                                             |
|  ADVICE TO THIS USER RUNNING 'VASP/VAMP'   (HEAR YOUR MASTER'S VOICE ...):  |
|                                                                             |
|      You have a (more or less) 'small supercell' and for smaller cells      |
|      it is recommended  to use the reciprocal-space projection scheme!      |
|      The real space optimization is not  efficient for small cells and it   |
|      is also less accurate ...                                              |
|      Therefore set LREAL=.FALSE. in the  INCAR file                         |
|                                                                             |
 ----------------------------------------------------------------------------- 

 Optimization of the real space projectors (new method)

 maximal supplied QI-value         = 17.01
 optimisation between [QCUT,QGAM] = [ 13.10, 26.19] = [ 48.02,192.10] Ry 
 Optimized for a Real-space Cutoff    1.40 Angstroem

   l    n(q)    QCUT    max X(q) W(low)/X(q) W(high)/X(q)  e(spline) 
   1     11    13.096     4.267    0.10E-03    0.42E-04    0.21E-06
   1     11    13.096     5.750    0.15E-03    0.59E-04    0.32E-06
   2     10    13.096    53.656    0.43E-04    0.12E-04    0.26E-06
   2     10    13.096    49.521    0.45E-04    0.12E-04    0.27E-06
   0     11    13.096    31.246    0.46E-04    0.28E-05    0.27E-06
   0     11    13.096    12.201    0.31E-04    0.21E-05    0.22E-06
  PAW_PBE Fe_pv 02Aug2007               :
 energy of atom  1       EATOM=-2457.4239
 kinetic energy error for atom=    0.0037 (will be added to EATOM!!)
 
 
 POSCAR: Fe2                                     
  positions in direct lattice
  No initial velocities read in
 exchange correlation table for  LEXCH =        8
   RHO(1)=    0.500       N(1)  =     2000
   RHO(2)=  100.500       N(2)  =     4000
 


--------------------------------------------------------------------------------------------------------


 ion  position               nearest neighbor table
   1  0.000  0.000  0.000-   2 2.46   2 2.46   2 2.46   2 2.46   2 2.46   2 2.46   2 2.46   2 2.46

   2  0.500  0.500  0.500-   1 2.46   1 2.46   1 2.46   1 2.46   1 2.46   1 2.46   1 2.46   1 2.46

 
  LATTYP: Found a simple cubic cell.
 ALAT       =     2.8400520000
  
  Lattice vectors:
  
 A1 = (   2.8400520000,   0.0000000000,   0.0000000000)
 A2 = (   0.0000000000,   2.8400520000,   0.0000000000)
 A3 = (   0.0000000000,   0.0000000000,   2.8400520000)


Analysis of symmetry for initial positions (statically):
=====================================================================
 Subroutine PRICEL returns following result:
 
  LATTYP: Found a body centered cubic cell.
 ALAT       =     2.8400520000
  
  Lattice vectors:
  
 A1 = (   1.4200260000,   1.4200260000,   1.4200260000)
 A2 = (   1.4200260000,  -1.4200260000,  -1.4200260000)
 A3 = (  -1.4200260000,   1.4200260000,  -1.4200260000)
 
   2 primitive cells build up your supercell.
 

 Routine SETGRP: Setting up the symmetry group for a 
 simple cubic supercell.


 Subroutine GETGRP returns: Found 48 space group operations
 (whereof 48 operations were pure point group operations)
 out of a pool of 48 trial point group operations.


The static configuration has the point symmetry O_h .


Analysis of symmetry for dynamics (positions and initial velocities):
=====================================================================
 Subroutine PRICEL returns following result:
 
  LATTYP: Found a body centered cubic cell.
 ALAT       =     2.8400520000
  
  Lattice vectors:
  
 A1 = (   1.4200260000,   1.4200260000,   1.4200260000)
 A2 = (   1.4200260000,  -1.4200260000,  -1.4200260000)
 A3 = (  -1.4200260000,   1.4200260000,  -1.4200260000)
 
   2 primitive cells build up your supercell.
 

 Routine SETGRP: Setting up the symmetry group for a 
 simple cubic supercell.


 Subroutine GETGRP returns: Found 48 space group operations
 (whereof 48 operations were pure point group operations)
 out of a pool of 48 trial point group operations.


The dynamic configuration has the point symmetry O_h .


Analysis of structural, dynamic, and magnetic symmetry:
=====================================================================
 Subroutine PRICEL returns following result:
 
  LATTYP: Found a body centered cubic cell.
 ALAT       =     2.8400520000
  
  Lattice vectors:
  
 A1 = (   1.4200260000,   1.4200260000,   1.4200260000)
 A2 = (   1.4200260000,  -1.4200260000,  -1.4200260000)
 A3 = (  -1.4200260000,   1.4200260000,  -1.4200260000)
 
   2 primitive cells build up your supercell.
 

 Routine SETGRP: Setting up the symmetry group for a 
 simple cubic supercell.


 Subroutine GETGRP returns: Found 48 space group operations
 (whereof 48 operations were pure point group operations)
 out of a pool of 48 trial point group operations.


The magnetic configuration has the point symmetry O_h .


 Subroutine INISYM returns: Found 48 space group operations
 (whereof 48 operations are pure point group operations),
 and found     2 'primitive' translations

 
 
 KPOINTS: pymatgen with grid density = 2166 / numb

Automatic generation of k-mesh.
Space group operators:
 irot       det(A)        alpha          n_x          n_y          n_z        tau_x        tau_y        tau_z
    1     1.000000     0.000000     1.000000     0.000000     0.000000     0.000000     0.000000     0.000000
    2    -1.000000     0.000000     1.000000     0.000000     0.000000     0.000000     0.000000     0.000000
    3     1.000000   120.000000    -0.577350    -0.577350    -0.577350     0.000000     0.000000     0.000000
    4    -1.000000   120.000000    -0.577350    -0.577350    -0.577350     0.000000     0.000000     0.000000
    5     1.000000   120.000000     0.577350     0.577350     0.577350     0.000000     0.000000     0.000000
    6    -1.000000   120.000000     0.577350     0.577350     0.577350     0.000000     0.000000     0.000000
    7     1.000000    90.000000     0.000000     0.000000    -1.000000     0.000000     0.000000     0.000000
    8    -1.000000    90.000000     0.000000     0.000000    -1.000000     0.000000     0.000000     0.000000
    9     1.000000   180.000000     0.000000     0.707107     0.707107     0.000000     0.000000     0.000000
   10    -1.000000   180.000000     0.000000     0.707107     0.707107     0.000000     0.000000     0.000000
   11     1.000000    90.000000     0.000000     1.000000     0.000000     0.000000     0.000000     0.000000
   12    -1.000000    90.000000     0.000000     1.000000     0.000000     0.000000     0.000000     0.000000
   13     1.000000   180.000000     0.000000     0.000000     1.000000     0.000000     0.000000     0.000000
   14    -1.000000   180.000000     0.000000     0.000000     1.000000     0.000000     0.000000     0.000000
   15     1.000000   120.000000    -0.577350     0.577350     0.577350     0.000000     0.000000     0.000000
   16    -1.000000   120.000000    -0.577350     0.577350     0.577350     0.000000     0.000000     0.000000
   17     1.000000   120.000000    -0.577350     0.577350    -0.577350     0.000000     0.000000     0.000000
   18    -1.000000   120.000000    -0.577350     0.577350    -0.577350     0.000000     0.000000     0.000000
   19     1.000000    90.000000     0.000000     0.000000     1.000000     0.000000     0.000000     0.000000
   20    -1.000000    90.000000     0.000000     0.000000     1.000000     0.000000     0.000000     0.000000
   21     1.000000    90.000000    -1.000000     0.000000     0.000000     0.000000     0.000000     0.000000
   22    -1.000000    90.000000    -1.000000     0.000000     0.000000     0.000000     0.000000     0.000000
   23     1.000000   180.000000     0.707107     0.000000     0.707107     0.000000     0.000000     0.000000
   24    -1.000000   180.000000     0.707107     0.000000     0.707107     0.000000     0.000000     0.000000
   25     1.000000   120.000000     0.577350    -0.577350     0.577350     0.000000     0.000000     0.000000
   26    -1.000000   120.000000     0.577350    -0.577350     0.577350     0.000000     0.000000     0.000000
   27     1.000000   120.000000    -0.577350    -0.577350     0.577350     0.000000     0.000000     0.000000
   28    -1.000000   120.000000    -0.577350    -0.577350     0.577350     0.000000     0.000000     0.000000
   29     1.000000   180.000000     1.000000     0.000000     0.000000     0.000000     0.000000     0.000000
   30    -1.000000   180.000000     1.000000     0.000000     0.000000     0.000000     0.000000     0.000000
   31     1.000000    90.000000     0.000000    -1.000000     0.000000     0.000000     0.000000     0.000000
   32    -1.000000    90.000000     0.000000    -1.000000     0.000000     0.000000     0.000000     0.000000
   33     1.000000   180.000000     0.707107     0.707107     0.000000     0.000000     0.000000     0.000000
   34    -1.000000   180.000000     0.707107     0.707107     0.000000     0.000000     0.000000     0.000000
   35     1.000000    90.000000     1.000000     0.000000     0.000000     0.000000     0.000000     0.000000
   36    -1.000000    90.000000     1.000000     0.000000     0.000000     0.000000     0.000000     0.000000
   37     1.000000   120.000000     0.577350    -0.577350    -0.577350     0.000000     0.000000     0.000000
   38    -1.000000   120.000000     0.577350    -0.577350    -0.577350     0.000000     0.000000     0.000000
   39     1.000000   180.000000     0.000000     1.000000     0.000000     0.000000     0.000000     0.000000
   40    -1.000000   180.000000     0.000000     1.000000     0.000000     0.000000     0.000000     0.000000
   41     1.000000   120.000000     0.577350     0.577350    -0.577350     0.000000     0.000000     0.000000
   42    -1.000000   120.000000     0.577350     0.577350    -0.577350     0.000000     0.000000     0.000000
   43     1.000000   180.000000     0.000000    -0.707107     0.707107     0.000000     0.000000     0.000000
   44    -1.000000   180.000000     0.000000    -0.707107     0.707107     0.000000     0.000000     0.000000
   45     1.000000   180.000000     0.707107    -0.707107     0.000000     0.000000     0.000000     0.000000
   46    -1.000000   180.000000     0.707107    -0.707107     0.000000     0.000000     0.000000     0.000000
   47     1.000000   180.000000     0.707107     0.000000    -0.707107     0.000000     0.000000     0.000000
   48    -1.000000   180.000000     0.707107     0.000000    -0.707107     0.000000     0.000000     0.000000
 
 Subroutine IBZKPT returns following result:
 ===========================================
 
 Found     35 irreducible k-points:
 
 Following reciprocal coordinates:
            Coordinates               Weight
  0.050000  0.050000  0.050000      8.000000
  0.150000  0.050000  0.050000     24.000000
  0.250000  0.050000  0.050000     24.000000
  0.350000  0.050000  0.050000     24.000000
  0.450000  0.050000  0.050000     24.000000
  0.150000  0.150000  0.050000     24.000000
  0.250000  0.150000  0.050000     48.000000
  0.350000  0.150000  0.050000     48.000000
  0.450000  0.150000  0.050000     48.000000
  0.250000  0.250000  0.050000     24.000000
  0.350000  0.250000  0.050000     48.000000
  0.450000  0.250000  0.050000     48.000000
  0.350000  0.350000  0.050000     24.000000
  0.450000  0.350000  0.050000     48.000000
  0.450000  0.450000  0.050000     24.000000
  0.150000  0.150000  0.150000      8.000000
  0.250000  0.150000  0.150000     24.000000
  0.350000  0.150000  0.150000     24.000000
  0.450000  0.150000  0.150000     24.000000
  0.250000  0.250000  0.150000     24.000000
  0.350000  0.250000  0.150000     48.000000
  0.450000  0.250000  0.150000     48.000000
  0.350000  0.350000  0.150000     24.000000
  0.450000  0.350000  0.150000     48.000000
  0.450000  0.450000  0.150000     24.000000
  0.250000  0.250000  0.250000      8.000000
  0.350000  0.250000  0.250000     24.000000
  0.450000  0.250000  0.250000     24.000000
  0.350000  0.350000  0.250000     24.000000
  0.450000  0.350000  0.250000     48.000000
  0.450000  0.450000  0.250000     24.000000
  0.350000  0.350000  0.350000      8.000000
  0.450000  0.350000  0.350000     24.000000
  0.450000  0.450000  0.350000     24.000000
  0.450000  0.450000  0.450000      8.000000
 
 Following cartesian coordinates:
            Coordinates               Weight
  0.017605  0.017605  0.017605      8.000000
  0.052816  0.017605  0.017605     24.000000
  0.088027  0.017605  0.017605     24.000000
  0.123237  0.017605  0.017605     24.000000
  0.158448  0.017605  0.017605     24.000000
  0.052816  0.052816  0.017605     24.000000
  0.088027  0.052816  0.017605     48.000000
  0.123237  0.052816  0.017605     48.000000
  0.158448  0.052816  0.017605     48.000000
  0.088027  0.088027  0.017605     24.000000
  0.123237  0.088027  0.017605     48.000000
  0.158448  0.088027  0.017605     48.000000
  0.123237  0.123237  0.017605     24.000000
  0.158448  0.123237  0.017605     48.000000
  0.158448  0.158448  0.017605     24.000000
  0.052816  0.052816  0.052816      8.000000
  0.088027  0.052816  0.052816     24.000000
  0.123237  0.052816  0.052816     24.000000
  0.158448  0.052816  0.052816     24.000000
  0.088027  0.088027  0.052816     24.000000
  0.123237  0.088027  0.052816     48.000000
  0.158448  0.088027  0.052816     48.000000
  0.123237  0.123237  0.052816     24.000000
  0.158448  0.123237  0.052816     48.000000
  0.158448  0.158448  0.052816     24.000000
  0.088027  0.088027  0.088027      8.000000
  0.123237  0.088027  0.088027     24.000000
  0.158448  0.088027  0.088027     24.000000
  0.123237  0.123237  0.088027     24.000000
  0.158448  0.123237  0.088027     48.000000
  0.158448  0.158448  0.088027     24.000000
  0.123237  0.123237  0.123237      8.000000
  0.158448  0.123237  0.123237     24.000000
  0.158448  0.158448  0.123237     24.000000
  0.158448  0.158448  0.158448      8.000000
 
 TETIRR: Found    466 inequivalent tetrahedra from     6000


--------------------------------------------------------------------------------------------------------




 Dimension of arrays:
   k-points           NKPTS =     35   k-points in BZ     NKDIM =     35   number of bands    NBANDS=     24
   number of dos      NEDOS =    301   number of ions     NIONS =      2
   non local maximal  LDIM  =      6   non local SUM 2l+1 LMDIM =     18
   total plane-waves  NPLWV =  13824
   max r-space proj   IRMAX =   7020   max aug-charges    IRDMAX=  18070
   dimension x,y,z NGX =    24 NGY =   24 NGZ =   24
   dimension x,y,z NGXF=    48 NGYF=   48 NGZF=   48
   support grid    NGXF=    48 NGYF=   48 NGZF=   48
   ions per type =               2
   NGX,Y,Z   is equivalent  to a cutoff of  14.05, 14.05, 14.05 a.u.
   NGXF,Y,Z  is equivalent  to a cutoff of  28.10, 28.10, 28.10 a.u.

 SYSTEM =  unknown system                          
 POSCAR =  Fe2                                     

 Startparameter for this run:
   NWRITE =      2    write-flag & timer
   PREC   = accura    normal or accurate (medium, high low for compatibility)
   ISTART =      0    job   : 0-new  1-cont  2-samecut
   ICHARG =      2    charge: 1-file 2-atom 10-const
   ISPIN  =      2    spin polarized calculation?
   LNONCOLLINEAR =      F non collinear calculations
   LSORBIT =      F    spin-orbit coupling
   INIWAV =      1    electr: 0-lowe 1-rand  2-diag
   LASPH  =      F    aspherical Exc in radial PAW
   METAGGA=      F    non-selfconsistent MetaGGA calc.

 Electronic Relaxation 1
   ENCUT  =  660.0 eV  48.51 Ry    6.96 a.u.   5.95  5.95  5.95*2*pi/ulx,y,z
   ENINI  =  660.0     initial cutoff
   ENAUG  =  578.3 eV  augmentation charge cutoff
   NELM   =    100;   NELMIN=  2; NELMDL= -5     # of ELM steps 
   EDIFF  = 0.1E-06   stopping-criterion for ELM
   LREAL  =      T    real-space projection
   NLSPLINE    = F    spline interpolate recip. space projectors
   LCOMPAT=      F    compatible to vasp.4.4
   GGA_COMPAT  = T    GGA compatible to vasp.4.4-vasp.4.6
   LMAXPAW     = -100 max onsite density
   LMAXMIX     =    2 max onsite mixed and CHGCAR
   VOSKOWN=      0    Vosko Wilk Nusair interpolation
   ROPT   =   -0.00025
 Ionic relaxation
   EDIFFG = 0.1E-05   stopping-criterion for IOM
   NSW    =      0    number of steps for IOM
   NBLOCK =      1;   KBLOCK =      1    inner block; outer block 
   IBRION =     -1    ionic relax: 0-MD 1-quasi-New 2-CG
   NFREE  =      0    steps in history (QN), initial steepest desc. (CG)
   ISIF   =      3    stress and relaxation
   IWAVPR =     10    prediction:  0-non 1-charg 2-wave 3-comb
   ISYM   =      2    0-nonsym 1-usesym 2-fastsym
   LCORR  =      T    Harris-Foulkes like correction to forces

   POTIM  = 0.5000    time-step for ionic-motion
   TEIN   =    0.0    initial temperature
   TEBEG  =    0.0;   TEEND  =   0.0 temperature during run
   SMASS  =  -3.00    Nose mass-parameter (am)
   estimated Nose-frequenzy (Omega)   =  0.10E-29 period in steps =****** mass=  -0.184E-27a.u.
   SCALEE = 1.0000    scale energy and forces
   NPACO  =    256;   APACO  = 16.0  distance and # of slots for P.C.
   PSTRESS=    0.0 pullay stress

  Mass of Ions in am
   POMASS =  55.85
  Ionic Valenz
   ZVAL   =  14.00
  Atomic Wigner-Seitz radii
   RWIGS  =  -1.00
  virtual crystal weights 
   VCA    =   1.00
   NELECT =      28.0000    total number of electrons
   NUPDOWN=      -1.0000    fix difference up-down

 DOS related values:
   EMIN   =  10.00;   EMAX   =-10.00  energy-range for DOS
   EFERMI =   0.00
   ISMEAR =    -5;   SIGMA  =   0.05  broadening in eV -4-tet -1-fermi 0-gaus

 Electronic relaxation 2 (details)
   IALGO  =     38    algorithm
   LDIAG  =      T    sub-space diagonalisation (order eigenvalues)
   LSUBROT=      F    optimize rotation matrix (better conditioning)
   TURBO    =      0    0=normal 1=particle mesh
   IRESTART =      0    0=no restart 2=restart with 2 vectors
   NREBOOT  =      0    no. of reboots
   NMIN     =      0    reboot dimension
   EREF     =   0.00    reference energy to select bands
   IMIX   =      4    mixing-type and parameters
     AMIX     =   0.40;   BMIX     =  1.00
     AMIX_MAG =   1.60;   BMIX_MAG =  1.00
     AMIN     =   0.10
     WC   =   100.;   INIMIX=   1;  MIXPRE=   1;  MAXMIX= -45

 Intra band minimization:
   WEIMIN = 0.0000     energy-eigenvalue tresh-hold
   EBREAK =  0.10E-08  absolut break condition
   DEPER  =   0.30     relativ break condition  

   TIME   =   0.40     timestep for ELM

  volume/ion in A,a.u.               =      11.45        77.29
  Fermi-wavevector in a.u.,A,eV,Ry     =   1.750389  3.307755 41.686364  3.063861
  Thomas-Fermi vector in A             =   2.821117
 
 Write flags
   LWAVE        =      F    write WAVECAR
   LDOWNSAMPLE  =      F    k-point downsampling of WAVECAR
   LCHARG       =      F    write CHGCAR
   LVTOT        =      F    write LOCPOT, total local potential
   LVHAR        =      F    write LOCPOT, Hartree potential only
   LELF         =      F    write electronic localiz. function (ELF)
   LORBIT       =     11    0 simple, 1 ext, 2 COOP (PROOUT), +10 PAW based schemes


 Dipole corrections
   LMONO  =      F    monopole corrections only (constant potential shift)
   LDIPOL =      F    correct potential (dipole corrections)
   IDIPOL =      0    1-x, 2-y, 3-z, 4-all directions 
   EPSILON=  1.0000000 bulk dielectric constant

 Exchange correlation treatment:
   GGA     =    --    GGA type
   LEXCH   =     8    internal setting for exchange type
   VOSKOWN=      0    Vosko Wilk Nusair interpolation
   LHFCALC =     F    Hartree Fock is set to
   LHFONE  =     F    Hartree Fock one center treatment
   AEXX    =    0.0000 exact exchange contribution

 Linear response parameters
   LEPSILON=     F    determine dielectric tensor
   LRPA    =     F    only Hartree local field effects (RPA)
   LNABLA  =     F    use nabla operator in PAW spheres
   LVEL    =     F    velocity operator in full k-point grid
   LINTERFAST=   F  fast interpolation
   KINTER  =     0    interpolate to denser k-point grid
   CSHIFT  =0.1000    complex shift for real part using Kramers Kronig
   OMEGAMAX=  -1.0    maximum frequency
   DEG_THRESHOLD= 0.2000000E-02 threshold for treating states as degnerate
   RTIME   =   -0.100 relaxation time in fs
  (WPLASMAI=    0.000 imaginary part of plasma frequency in eV, 0.658/RTIME)
   DFIELD  = 0.0000000 0.0000000 0.0000000 field for delta impulse in time
 
 Orbital magnetization related:
   ORBITALMAG=     F  switch on orbital magnetization
   LCHIMAG   =     F  perturbation theory with respect to B field
   DQ        =  0.001000  dq finite difference perturbation B field
   LLRAUG    =     F  two centre corrections for induced B field



--------------------------------------------------------------------------------------------------------


 Static calculation
 charge density and potential will be updated during run
 spin polarized calculation
 Variant of blocked Davidson
 Davidson routine will perform the subspace rotation
 perform sub-space diagonalisation
    after iterative eigenvector-optimisation
 modified Broyden-mixing scheme, WC =      100.0
 initial mixing is a Kerker type mixing with AMIX =  0.4000 and BMIX =      1.0000
 Hartree-type preconditioning will be used
 using additional bands           10
 real space projection scheme for non local part
 use partial core corrections
 calculate Harris-corrections to forces 
   (improved forces if not selfconsistent)
 use gradient corrections 
 use of overlap-Matrix (Vanderbilt PP)
 Fermi weights with tetrahedron method with Bloechl corrections


--------------------------------------------------------------------------------------------------------


  energy-cutoff  :      660.00
  volume of cell :       22.91
      direct lattice vectors                 reciprocal lattice vectors
     2.840052000  0.000000000  0.000000000     0.352106229  0.000000000  0.000000000
     0.000000000  2.840052000  0.000000000     0.000000000  0.352106229  0.000000000
     0.000000000  0.000000000  2.840052000     0.000000000  0.000000000  0.352106229

  length of vectors
     2.840052000  2.840052000  2.840052000     0.352106229  0.352106229  0.352106229


 
 k-points in units of 2pi/SCALE and weight: pymatgen with grid density = 2166 / numb
   0.01760531  0.01760531  0.01760531       0.008
   0.05281593  0.01760531  0.01760531       0.024
   0.08802656  0.01760531  0.01760531       0.024
   0.12323718  0.01760531  0.01760531       0.024
   0.15844780  0.01760531  0.01760531       0.024
   0.05281593  0.05281593  0.01760531       0.024
   0.08802656  0.05281593  0.01760531       0.048
   0.12323718  0.05281593  0.01760531       0.048
   0.15844780  0.05281593  0.01760531       0.048
   0.08802656  0.08802656  0.01760531       0.024
   0.12323718  0.08802656  0.01760531       0.048
   0.15844780  0.08802656  0.01760531       0.048
   0.12323718  0.12323718  0.01760531       0.024
   0.15844780  0.12323718  0.01760531       0.048
   0.15844780  0.15844780  0.01760531       0.024
   0.05281593  0.05281593  0.05281593       0.008
   0.08802656  0.05281593  0.05281593       0.024
   0.12323718  0.05281593  0.05281593       0.024
   0.15844780  0.05281593  0.05281593       0.024
   0.08802656  0.08802656  0.05281593       0.024
   0.12323718  0.08802656  0.05281593       0.048
   0.15844780  0.08802656  0.05281593       0.048
   0.12323718  0.12323718  0.05281593       0.024
   0.15844780  0.12323718  0.05281593       0.048
   0.15844780  0.15844780  0.05281593       0.024
   0.08802656  0.08802656  0.08802656       0.008
   0.12323718  0.08802656  0.08802656       0.024
   0.15844780  0.08802656  0.08802656       0.024
   0.12323718  0.12323718  0.08802656       0.024
   0.15844780  0.12323718  0.08802656       0.048
   0.15844780  0.15844780  0.08802656       0.024
   0.12323718  0.12323718  0.12323718       0.008
   0.15844780  0.12323718  0.12323718       0.024
   0.15844780  0.15844780  0.12323718       0.024
   0.15844780  0.15844780  0.15844780       0.008
 
 k-points in reciprocal lattice and weights: pymatgen with grid density = 2166 / numb
   0.05000000  0.05000000  0.05000000       0.008
   0.15000000  0.05000000  0.05000000       0.024
   0.25000000  0.05000000  0.05000000       0.024
   0.35000000  0.05000000  0.05000000       0.024
   0.45000000  0.05000000  0.05000000       0.024
   0.15000000  0.15000000  0.05000000       0.024
   0.25000000  0.15000000  0.05000000       0.048
   0.35000000  0.15000000  0.05000000       0.048
   0.45000000  0.15000000  0.05000000       0.048
   0.25000000  0.25000000  0.05000000       0.024
   0.35000000  0.25000000  0.05000000       0.048
   0.45000000  0.25000000  0.05000000       0.048
   0.35000000  0.35000000  0.05000000       0.024
   0.45000000  0.35000000  0.05000000       0.048
   0.45000000  0.45000000  0.05000000       0.024
   0.15000000  0.15000000  0.15000000       0.008
   0.25000000  0.15000000  0.15000000       0.024
   0.35000000  0.15000000  0.15000000       0.024
   0.45000000  0.15000000  0.15000000       0.024
   0.25000000  0.25000000  0.15000000       0.024
   0.35000000  0.25000000  0.15000000       0.048
   0.45000000  0.25000000  0.15000000       0.048
   0.35000000  0.35000000  0.15000000       0.024
   0.45000000  0.35000000  0.15000000       0.048
   0.45000000  0.45000000  0.15000000       0.024
   0.25000000  0.25000000  0.25000000       0.008
   0.35000000  0.25000000  0.25000000       0.024
   0.45000000  0.25000000  0.25000000       0.024
   0.35000000  0.35000000  0.25000000       0.024
   0.45000000  0.35000000  0.25000000       0.048
   0.45000000  0.45000000  0.25000000       0.024
   0.35000000  0.35000000  0.35000000       0.008
   0.45000000  0.35000000  0.35000000       0.024
   0.45000000  0.45000000  0.35000000       0.024
   0.45000000  0.45000000  0.45000000       0.008
 
 position of ions in fractional coordinates (direct lattice) 
   0.00000000  0.00000000  0.00000000
   0.50000000  0.50000000  0.50000000
 
 position of ions in cartesian coordinates  (Angst):
   0.00000000  0.00000000  0.00000000
   1.42002600  1.42002600  1.42002600
 


--------------------------------------------------------------------------------------------------------


 k-point  1 :   0.0500 0.0500 0.0500  plane waves:     886
 k-point  2 :   0.1500 0.0500 0.0500  plane waves:     880
 k-point  3 :   0.2500 0.0500 0.0500  plane waves:     876
 k-point  4 :   0.3500 0.0500 0.0500  plane waves:     871
 k-point  5 :   0.4500 0.0500 0.0500  plane waves:     872
 k-point  6 :   0.1500 0.1500 0.0500  plane waves:     876
 k-point  7 :   0.2500 0.1500 0.0500  plane waves:     881
 k-point  8 :   0.3500 0.1500 0.0500  plane waves:     873
 k-point  9 :   0.4500 0.1500 0.0500  plane waves:     871
 k-point 10 :   0.2500 0.2500 0.0500  plane waves:     879
 k-point 11 :   0.3500 0.2500 0.0500  plane waves:     877
 k-point 12 :   0.4500 0.2500 0.0500  plane waves:     881
 k-point 13 :   0.3500 0.3500 0.0500  plane waves:     879
 k-point 14 :   0.4500 0.3500 0.0500  plane waves:     884
 k-point 15 :   0.4500 0.4500 0.0500  plane waves:     876
 k-point 16 :   0.1500 0.1500 0.1500  plane waves:     883
 k-point 17 :   0.2500 0.1500 0.1500  plane waves:     880
 k-point 18 :   0.3500 0.1500 0.1500  plane waves:     884
 k-point 19 :   0.4500 0.1500 0.1500  plane waves:     878
 k-point 20 :   0.2500 0.2500 0.1500  plane waves:     879
 k-point 21 :   0.3500 0.2500 0.1500  plane waves:     882
 k-point 22 :   0.4500 0.2500 0.1500  plane waves:     886
 k-point 23 :   0.3500 0.3500 0.1500  plane waves:     884
 k-point 24 :   0.4500 0.3500 0.1500  plane waves:     887
 k-point 25 :   0.4500 0.4500 0.1500  plane waves:     880
 k-point 26 :   0.2500 0.2500 0.2500  plane waves:     886
 k-point 27 :   0.3500 0.2500 0.2500  plane waves:     888
 k-point 28 :   0.4500 0.2500 0.2500  plane waves:     889
 k-point 29 :   0.3500 0.3500 0.2500  plane waves:     890
 k-point 30 :   0.4500 0.3500 0.2500  plane waves:     889
 k-point 31 :   0.4500 0.4500 0.2500  plane waves:     888
 k-point 32 :   0.3500 0.3500 0.3500  plane waves:     892
 k-point 33 :   0.4500 0.3500 0.3500  plane waves:     901
 k-point 34 :   0.4500 0.4500 0.3500  plane waves:     895
 k-point 35 :   0.4500 0.4500 0.4500  plane waves:     897

 maximum and minimum number of plane-waves per node :       238      211

 maximum number of plane-waves:       901
 maximum index in each direction: 
   IXMAX=    5   IYMAX=    5   IZMAX=    5
   IXMIN=   -6   IYMIN=   -6   IZMIN=   -6


 real space projection operators:
  total allocation   :       1902.09 KBytes
  max/ min on nodes  :        487.69        466.03


 parallel 3D FFT for wavefunctions:
    minimum data exchange during FFTs selected (reduces bandwidth)
 parallel 3D FFT for charge:
    minimum data exchange during FFTs selected (reduces bandwidth)


 total amount of memory used by VASP MPI-rank0    32828. kBytes
=======================================================================

   base      :      30000. kBytes
   nonlr-proj:        810. kBytes
   fftplans  :        262. kBytes
   grid      :        623. kBytes
   one-center:         31. kBytes
   wavefun   :       1102. kBytes
 
     INWAV:  cpu time    0.0000: real time    0.0001
 Broyden mixing: mesh for mixing (old mesh)
   NGX = 11   NGY = 11   NGZ = 11
  (NGX  = 48   NGY  = 48   NGZ  = 48)
  gives a total of   1331 points

 initial charge density was supplied:
 charge density of overlapping atoms calculated
 number of electron      28.0000000 magnetization      10.0000000
 keeping initial charge density in first step


--------------------------------------------------------------------------------------------------------


 Maximum index for non-local projection operator         1657
 Maximum index for augmentation-charges          805 (set IRDMAX)


--------------------------------------------------------------------------------------------------------


 First call to EWALD:  gamma=   0.624
 Maximum number of real-space cells 3x 3x 3
 Maximum number of reciprocal cells 3x 3x 3

    FEWALD:  cpu time    0.0013: real time    0.0013


--------------------------------------- Iteration      1(   1)  ---------------------------------------


    POTLOK:  cpu time    0.0078: real time    0.0079
    SETDIJ:  cpu time    0.0057: real time    0.0057
     EDDAV:  cpu time    0.4617: real time    0.4852
 BZINTS: Fermi energy: 20.883139; 28.000000 electrons
         Band energy: -91.719919;  BLOECHL correction: -0.127317
       DOS:  cpu time    0.0341: real time    0.0341
    --------------------------------------------
      LOOP:  cpu time    0.5093: real time    0.5329

 eigenvalue-minimisations  :  3468
 total energy-change (2. order) : 0.2307032E+03  (-0.2008049E+04)
 number of electron      28.0000000 magnetization      10.0000000
 augmentation part       28.0000000 magnetization      10.0000000

 Free energy of the ion-electron system (eV)
  ---------------------------------------------------
  alpha Z        PSCENC =       218.87048721
  Ewald energy   TEWEN  =     -3616.56080017
  -Hartree energ DENC   =     -1162.86386254
  -exchange      EXHF   =         0.00000000
  -V(xc)+E(xc)   XCENC  =       147.54621923
  PAW double counting   =      3997.93860218    -4177.34792201
  entropy T*S    EENTRO =         0.00000000
  eigenvalues    EBANDS =       -91.71991900
  atomic energy  EATOM  =      4914.84034758
  Solvation  Ediel_sol  =         0.00000000
  ---------------------------------------------------
  free energy    TOTEN  =       230.70315248 eV

  energy without entropy =      230.70315248  energy(sigma->0) =      230.70315248


--------------------------------------------------------------------------------------------------------




--------------------------------------- Iteration      1(   2)  ---------------------------------------


     EDDAV:  cpu time    0.4388: real time    0.4445
 BZINTS: Fermi energy: 12.200935; 28.000000 electrons
         Band energy:-331.997553;  BLOECHL correction: -0.069412
       DOS:  cpu time    0.0334: real time    0.0335
    --------------------------------------------
      LOOP:  cpu time    0.4722: real time    0.4780

 eigenvalue-minimisations  :  3420
 total energy-change (2. order) :-0.2402776E+03  (-0.2302391E+03)
 number of electron      28.0000000 magnetization      10.0000000
 augmentation part       28.0000000 magnetization      10.0000000

 Free energy of the ion-electron system (eV)
  ---------------------------------------------------
  alpha Z        PSCENC =       218.87048721
  Ewald energy   TEWEN  =     -3616.56080017
  -Hartree energ DENC   =     -1162.86386254
  -exchange      EXHF   =         0.00000000
  -V(xc)+E(xc)   XCENC  =       147.54621923
  PAW double counting   =      3997.93860218    -4177.34792201
  entropy T*S    EENTRO =         0.00000000
  eigenvalues    EBANDS =      -331.99755313
  atomic energy  EATOM  =      4914.84034758
  Solvation  Ediel_sol  =         0.00000000
  ---------------------------------------------------
  free energy    TOTEN  =        -9.57448165 eV

  energy without entropy =       -9.57448165  energy(sigma->0) =       -9.57448165


--------------------------------------------------------------------------------------------------------




--------------------------------------- Iteration      1(   3)  ---------------------------------------


     EDDAV:  cpu time    0.4644: real time    0.4658
 BZINTS: Fermi energy: 12.037218; 28.000000 electrons
         Band energy:-338.640955;  BLOECHL correction: -0.071279
       DOS:  cpu time    0.0335: real time    0.0336
    --------------------------------------------
      LOOP:  cpu time    0.4979: real time    0.4994

 eigenvalue-minimisations  :  3612
 total energy-change (2. order) :-0.6643402E+01  (-0.6629849E+01)
 number of electron      28.0000000 magnetization      10.0000000
 augmentation part       28.0000000 magnetization      10.0000000

 Free energy of the ion-electron system (eV)
  ---------------------------------------------------
  alpha Z        PSCENC =       218.87048721
  Ewald energy   TEWEN  =     -3616.56080017
  -Hartree energ DENC   =     -1162.86386254
  -exchange      EXHF   =         0.00000000
  -V(xc)+E(xc)   XCENC  =       147.54621923
  PAW double counting   =      3997.93860218    -4177.34792201
  entropy T*S    EENTRO =         0.00000000
  eigenvalues    EBANDS =      -338.64095502
  atomic energy  EATOM  =      4914.84034758
  Solvation  Ediel_sol  =         0.00000000
  ---------------------------------------------------
  free energy    TOTEN  =       -16.21788355 eV

  energy without entropy =      -16.21788355  energy(sigma->0) =      -16.21788355


--------------------------------------------------------------------------------------------------------




--------------------------------------- Iteration      1(   4)  ---------------------------------------


     EDDAV:  cpu time    0.5154: real time    0.5170
 BZINTS: Fermi energy: 12.036775; 28.000000 electrons
         Band energy:-338.695766;  BLOECHL correction: -0.071281
       DOS:  cpu time    0.0344: real time    0.0345
    --------------------------------------------
      LOOP:  cpu time    0.5498: real time    0.5515

 eigenvalue-minimisations  :  4032
 total energy-change (2. order) :-0.5481058E-01  (-0.5481172E-01)
 number of electron      28.0000000 magnetization      10.0000000
 augmentation part       28.0000000 magnetization      10.0000000

 Free energy of the ion-electron system (eV)
  ---------------------------------------------------
  alpha Z        PSCENC =       218.87048721
  Ewald energy   TEWEN  =     -3616.56080017
  -Hartree energ DENC   =     -1162.86386254
  -exchange      EXHF   =         0.00000000
  -V(xc)+E(xc)   XCENC  =       147.54621923
  PAW double counting   =      3997.93860218    -4177.34792201
  entropy T*S    EENTRO =         0.00000000
  eigenvalues    EBANDS =      -338.69576560
  atomic energy  EATOM  =      4914.84034758
  Solvation  Ediel_sol  =         0.00000000
  ---------------------------------------------------
  free energy    TOTEN  =       -16.27269412 eV

  energy without entropy =      -16.27269412  energy(sigma->0) =      -16.27269412


--------------------------------------------------------------------------------------------------------




--------------------------------------- Iteration      1(   5)  ---------------------------------------


     EDDAV:  cpu time    0.4550: real time    0.4563
 BZINTS: Fermi energy: 12.036773; 28.000000 electrons
         Band energy:-338.696786;  BLOECHL correction: -0.071281
       DOS:  cpu time    0.0342: real time    0.0343
    CHARGE:  cpu time    0.0150: real time    0.0151
    MIXING:  cpu time    0.0005: real time    0.0006
    --------------------------------------------
      LOOP:  cpu time    0.5048: real time    0.5062

 eigenvalue-minimisations  :  3576
 total energy-change (2. order) :-0.1020741E-02  (-0.1020771E-02)
 number of electron      28.0000000 magnetization       4.3576637
 augmentation part       15.9043741 magnetization       2.8337888

 Broyden mixing:
  rms(total) = 0.24988E+01    rms(broyden)= 0.24988E+01
  rms(prec ) = 0.39511E+01
  weight for this iteration     100.00

 Free energy of the ion-electron system (eV)
  ---------------------------------------------------
  alpha Z        PSCENC =       218.87048721
  Ewald energy   TEWEN  =     -3616.56080017
  -Hartree energ DENC   =     -1162.86386254
  -exchange      EXHF   =         0.00000000
  -V(xc)+E(xc)   XCENC  =       147.54621923
  PAW double counting   =      3997.93860218    -4177.34792201
  entropy T*S    EENTRO =         0.00000000
  eigenvalues    EBANDS =      -338.69678634
  atomic energy  EATOM  =      4914.84034758
  Solvation  Ediel_sol  =         0.00000000
  ---------------------------------------------------
  free energy    TOTEN  =       -16.27371486 eV

  energy without entropy =      -16.27371486  energy(sigma->0) =      -16.27371486


--------------------------------------------------------------------------------------------------------




--------------------------------------- Iteration      1(   6)  ---------------------------------------


    POTLOK:  cpu time    0.0059: real time    0.0060
    SETDIJ:  cpu time    0.0052: real time    0.0052
     EDDAV:  cpu time    0.4353: real time    0.4363
 BZINTS: Fermi energy:  9.265799; 28.000000 electrons
         Band energy:-409.584167;  BLOECHL correction: -0.036193
       DOS:  cpu time    0.0331: real time    0.0332
    CHARGE:  cpu time    0.0149: real time    0.0150
    MIXING:  cpu time    0.0005: real time    0.0005
    --------------------------------------------
      LOOP:  cpu time    0.4949: real time    0.4962

 eigenvalue-minimisations  :  3420
 total energy-change (2. order) :-0.1814609E+00  (-0.7495056E+00)
 number of electron      27.9999999 magnetization       4.5320409
 augmentation part       17.0679653 magnetization       3.5500428

 Broyden mixing:
  rms(total) = 0.69116E+00    rms(broyden)= 0.69105E+00
  rms(prec ) = 0.86643E+00
  weight for this iteration     100.00

 eigenvalues of (default mixing * dielectric matrix)
  average eigenvalue GAMMA=   0.8370
  0.8370

 Free energy of the ion-electron system (eV)
  ---------------------------------------------------
  alpha Z        PSCENC =       218.87048721
  Ewald energy   TEWEN  =     -3616.56080017
  -Hartree energ DENC   =     -1089.08709790
  -exchange      EXHF   =         0.00000000
  -V(xc)+E(xc)   XCENC  =       140.63884298
  PAW double counting   =      4113.78068129    -4289.35346941
  entropy T*S    EENTRO =         0.00000000
  eigenvalues    EBANDS =      -409.58416739
  atomic energy  EATOM  =      4914.84034758
  Solvation  Ediel_sol  =         0.00000000
  ---------------------------------------------------
  free energy    TOTEN  =       -16.45517581 eV

  energy without entropy =      -16.45517581  energy(sigma->0) =      -16.45517581


--------------------------------------------------------------------------------------------------------




--------------------------------------- Iteration      1(   7)  ---------------------------------------


    POTLOK:  cpu time    0.0059: real time    0.0060
    SETDIJ:  cpu time    0.0049: real time    0.0049
     EDDAV:  cpu time    0.4378: real time    0.4390
 BZINTS: Fermi energy:  9.762532; 28.000000 electrons
         Band energy:-395.193184;  BLOECHL correction: -0.033723
       DOS:  cpu time    0.0322: real time    0.0323
    CHARGE:  cpu time    0.0150: real time    0.0150
    MIXING:  cpu time    0.0004: real time    0.0004
    --------------------------------------------
      LOOP:  cpu time    0.4961: real time    0.4975

 eigenvalue-minimisations  :  3408
 total energy-change (2. order) :-0.5645506E-01  (-0.6155517E-01)
 number of electron      27.9999999 magnetization       4.4438229
 augmentation part       16.7742093 magnetization       3.5268575

 Broyden mixing:
  rms(total) = 0.43066E+00    rms(broyden)= 0.43063E+00
  rms(prec ) = 0.52582E+00
  weight for this iteration     100.00

 eigenvalues of (default mixing * dielectric matrix)
  average eigenvalue GAMMA=   0.7673
  0.9881  0.5466

 Free energy of the ion-electron system (eV)
  ---------------------------------------------------
  alpha Z        PSCENC =       218.87048721
  Ewald energy   TEWEN  =     -3616.56080017
  -Hartree energ DENC   =     -1099.08574284
  -exchange      EXHF   =         0.00000000
  -V(xc)+E(xc)   XCENC  =       141.33118431
  PAW double counting   =      4219.76790421    -4400.48182677
  entropy T*S    EENTRO =         0.00000000
  eigenvalues    EBANDS =      -395.19318440
  atomic energy  EATOM  =      4914.84034758
  Solvation  Ediel_sol  =         0.00000000
  ---------------------------------------------------
  free energy    TOTEN  =       -16.51163087 eV

  energy without entropy =      -16.51163087  energy(sigma->0) =      -16.51163087


--------------------------------------------------------------------------------------------------------




--------------------------------------- Iteration      1(   8)  ---------------------------------------


    POTLOK:  cpu time    0.0064: real time    0.0067
    SETDIJ:  cpu time    0.0051: real time    0.0051
     EDDAV:  cpu time    0.4701: real time    0.4720
 BZINTS: Fermi energy:  9.688866; 28.000000 electrons
         Band energy:-397.461299;  BLOECHL correction: -0.033980
       DOS:  cpu time    0.0339: real time    0.0340
    CHARGE:  cpu time    0.0148: real time    0.0149
    MIXING:  cpu time    0.0003: real time    0.0003
    --------------------------------------------
      LOOP:  cpu time    0.5306: real time    0.5329

 eigenvalue-minimisations  :  3696
 total energy-change (2. order) :-0.1004286E-01  (-0.1519139E-02)
 number of electron      27.9999999 magnetization       4.3701075
 augmentation part       16.8103263 magnetization       3.4533220

 Broyden mixing:
  rms(total) = 0.13687E+00    rms(broyden)= 0.13686E+00
  rms(prec ) = 0.21423E+00
  weight for this iteration     100.00

 eigenvalues of (default mixing * dielectric matrix)
  average eigenvalue GAMMA=   1.0472
  1.6981  0.8569  0.5867

 Free energy of the ion-electron system (eV)
  ---------------------------------------------------
  alpha Z        PSCENC =       218.87048721
  Ewald energy   TEWEN  =     -3616.56080017
  -Hartree energ DENC   =     -1095.16732980
  -exchange      EXHF   =         0.00000000
  -V(xc)+E(xc)   XCENC  =       141.10709787
  PAW double counting   =      4267.79351918    -4449.94369697
  entropy T*S    EENTRO =         0.00000000
  eigenvalues    EBANDS =      -397.46129863
  atomic energy  EATOM  =      4914.84034758
  Solvation  Ediel_sol  =         0.00000000
  ---------------------------------------------------
  free energy    TOTEN  =       -16.52167373 eV

  energy without entropy =      -16.52167373  energy(sigma->0) =      -16.52167373


--------------------------------------------------------------------------------------------------------




--------------------------------------- Iteration      1(   9)  ---------------------------------------


    POTLOK:  cpu time    0.0060: real time    0.0060
    SETDIJ:  cpu time    0.0048: real time    0.0048
     EDDAV:  cpu time    0.4637: real time    0.4650
 BZINTS: Fermi energy:  9.610571; 28.000000 electrons
         Band energy:-399.755649;  BLOECHL correction: -0.034532
       DOS:  cpu time    0.0330: real time    0.0331
    CHARGE:  cpu time    0.0149: real time    0.0150
    MIXING:  cpu time    0.0003: real time    0.0003
    --------------------------------------------
      LOOP:  cpu time    0.5228: real time    0.5242

 eigenvalue-minimisations  :  3660
 total energy-change (2. order) : 0.8188426E-02  (-0.5189389E-03)
 number of electron      27.9999999 magnetization       4.4018155
 augmentation part       16.8465182 magnetization       3.4830786

 Broyden mixing:
  rms(total) = 0.33708E-01    rms(broyden)= 0.33702E-01
  rms(prec ) = 0.45936E-01
  weight for this iteration     100.00

 eigenvalues of (default mixing * dielectric matrix)
  average eigenvalue GAMMA=   1.1851
  2.3386  1.0615  0.6985  0.6417

 Free energy of the ion-electron system (eV)
  ---------------------------------------------------
  alpha Z        PSCENC =       218.87048721
  Ewald energy   TEWEN  =     -3616.56080017
  -Hartree energ DENC   =     -1090.25810445
  -exchange      EXHF   =         0.00000000
  -V(xc)+E(xc)   XCENC  =       140.86435615
  PAW double counting   =      4344.19379610    -4528.70791839
  entropy T*S    EENTRO =         0.00000000
  eigenvalues    EBANDS =      -399.75564933
  atomic energy  EATOM  =      4914.84034758
  Solvation  Ediel_sol  =         0.00000000
  ---------------------------------------------------
  free energy    TOTEN  =       -16.51348530 eV

  energy without entropy =      -16.51348530  energy(sigma->0) =      -16.51348530


--------------------------------------------------------------------------------------------------------




--------------------------------------- Iteration      1(  10)  ---------------------------------------


    POTLOK:  cpu time    0.0059: real time    0.0060
    SETDIJ:  cpu time    0.0048: real time    0.0048
     EDDAV:  cpu time    0.4377: real time    0.4388
 BZINTS: Fermi energy:  9.624880; 28.000000 electrons
         Band energy:-399.217446;  BLOECHL correction: -0.034690
       DOS:  cpu time    0.0321: real time    0.0322
    CHARGE:  cpu time    0.0185: real time    0.0186
    MIXING:  cpu time    0.0004: real time    0.0004
    --------------------------------------------
      LOOP:  cpu time    0.4994: real time    0.5007

 eigenvalue-minimisations  :  3444
 total energy-change (2. order) : 0.1690713E-03  (-0.2257265E-03)
 number of electron      27.9999999 magnetization       4.4066405
 augmentation part       16.8345587 magnetization       3.4851323

 Broyden mixing:
  rms(total) = 0.44317E-02    rms(broyden)= 0.44315E-02
  rms(prec ) = 0.54595E-02
  weight for this iteration     100.00

 eigenvalues of (default mixing * dielectric matrix)
  average eigenvalue GAMMA=   1.1291
  2.4319  1.1000  0.7829  0.6970  0.6338

 Free energy of the ion-electron system (eV)
  ---------------------------------------------------
  alpha Z        PSCENC =       218.87048721
  Ewald energy   TEWEN  =     -3616.56080017
  -Hartree energ DENC   =     -1089.86871138
  -exchange      EXHF   =         0.00000000
  -V(xc)+E(xc)   XCENC  =       140.87158380
  PAW double counting   =      4373.04225937    -4558.49103703
  entropy T*S    EENTRO =         0.00000000
  eigenvalues    EBANDS =      -399.21744562
  atomic energy  EATOM  =      4914.84034758
  Solvation  Ediel_sol  =         0.00000000
  ---------------------------------------------------
  free energy    TOTEN  =       -16.51331623 eV

  energy without entropy =      -16.51331623  energy(sigma->0) =      -16.51331623


--------------------------------------------------------------------------------------------------------




--------------------------------------- Iteration      1(  11)  ---------------------------------------


    POTLOK:  cpu time    0.0059: real time    0.0060
    SETDIJ:  cpu time    0.0048: real time    0.0048
     EDDAV:  cpu time    0.4612: real time    0.4627
 BZINTS: Fermi energy:  9.623334; 28.000000 electrons
         Band energy:-399.249169;  BLOECHL correction: -0.034707
       DOS:  cpu time    0.0321: real time    0.0322
    CHARGE:  cpu time    0.0149: real time    0.0149
    MIXING:  cpu time    0.0004: real time    0.0004
    --------------------------------------------
      LOOP:  cpu time    0.5194: real time    0.5210

 eigenvalue-minimisations  :  3636
 total energy-change (2. order) :-0.5928084E-04  (-0.4910436E-05)
 number of electron      27.9999999 magnetization       4.4060453
 augmentation part       16.8350978 magnetization       3.4848008

 Broyden mixing:
  rms(total) = 0.24295E-02    rms(broyden)= 0.24293E-02
  rms(prec ) = 0.32687E-02
  weight for this iteration     100.00

 eigenvalues of (default mixing * dielectric matrix)
  average eigenvalue GAMMA=   1.2932
  2.2992  2.2992  1.0748  0.6330  0.7549  0.6977

 Free energy of the ion-electron system (eV)
  ---------------------------------------------------
  alpha Z        PSCENC =       218.87048721
  Ewald energy   TEWEN  =     -3616.56080017
  -Hartree energ DENC   =     -1089.86153611
  -exchange      EXHF   =         0.00000000
  -V(xc)+E(xc)   XCENC  =       140.87401303
  PAW double counting   =      4374.26051718    -4559.68723542
  entropy T*S    EENTRO =         0.00000000
  eigenvalues    EBANDS =      -399.24916882
  atomic energy  EATOM  =      4914.84034758
  Solvation  Ediel_sol  =         0.00000000
  ---------------------------------------------------
  free energy    TOTEN  =       -16.51337551 eV

  energy without entropy =      -16.51337551  energy(sigma->0) =      -16.51337551


--------------------------------------------------------------------------------------------------------




--------------------------------------- Iteration      1(  12)  ---------------------------------------


    POTLOK:  cpu time    0.0059: real time    0.0061
    SETDIJ:  cpu time    0.0048: real time    0.0048
     EDDAV:  cpu time    0.4906: real time    0.4918
 BZINTS: Fermi energy:  9.621800; 28.000000 electrons
         Band energy:-399.283553;  BLOECHL correction: -0.034720
       DOS:  cpu time    0.0339: real time    0.0340
    CHARGE:  cpu time    0.0145: real time    0.0147
    MIXING:  cpu time    0.0004: real time    0.0004
    --------------------------------------------
      LOOP:  cpu time    0.5501: real time    0.5517

 eigenvalue-minimisations  :  3876
 total energy-change (2. order) :-0.8265535E-05  (-0.5018246E-06)
 number of electron      27.9999999 magnetization       4.4057721
 augmentation part       16.8358119 magnetization       3.4847924

 Broyden mixing:
  rms(total) = 0.95971E-03    rms(broyden)= 0.95968E-03
  rms(prec ) = 0.13588E-02
  weight for this iteration     100.00

 eigenvalues of (default mixing * dielectric matrix)
  average eigenvalue GAMMA=   1.2313
  2.3877  2.3877  1.0836  0.7897  0.7168  0.6268  0.6268

 Free energy of the ion-electron system (eV)
  ---------------------------------------------------
  alpha Z        PSCENC =       218.87048721
  Ewald energy   TEWEN  =     -3616.56080017
  -Hartree energ DENC   =     -1089.91312231
  -exchange      EXHF   =         0.00000000
  -V(xc)+E(xc)   XCENC  =       140.87669078
  PAW double counting   =      4375.31720348    -4560.66063769
  entropy T*S    EENTRO =         0.00000000
  eigenvalues    EBANDS =      -399.28355265
  atomic energy  EATOM  =      4914.84034758
  Solvation  Ediel_sol  =         0.00000000
  ---------------------------------------------------
  free energy    TOTEN  =       -16.51338378 eV

  energy without entropy =      -16.51338378  energy(sigma->0) =      -16.51338378


--------------------------------------------------------------------------------------------------------




--------------------------------------- Iteration      1(  13)  ---------------------------------------


    POTLOK:  cpu time    0.0058: real time    0.0064
    SETDIJ:  cpu time    0.0048: real time    0.0048
     EDDAV:  cpu time    0.4515: real time    0.4525
 BZINTS: Fermi energy:  9.622399; 28.000000 electrons
         Band energy:-399.271247;  BLOECHL correction: -0.034712
       DOS:  cpu time    0.0340: real time    0.0340
    CHARGE:  cpu time    0.0152: real time    0.0152
    MIXING:  cpu time    0.0005: real time    0.0005
    --------------------------------------------
      LOOP:  cpu time    0.5117: real time    0.5135

 eigenvalue-minimisations  :  3516
 total energy-change (2. order) : 0.6745308E-05  (-0.1353062E-06)
 number of electron      27.9999999 magnetization       4.4055684
 augmentation part       16.8355109 magnetization       3.4844792

 Broyden mixing:
  rms(total) = 0.25601E-03    rms(broyden)= 0.25597E-03
  rms(prec ) = 0.34794E-03
  weight for this iteration     100.00

 eigenvalues of (default mixing * dielectric matrix)
  average eigenvalue GAMMA=   1.2904
  2.5188  2.4552  1.4731  1.0638  0.8098  0.6260  0.6884  0.6884

 Free energy of the ion-electron system (eV)
  ---------------------------------------------------
  alpha Z        PSCENC =       218.87048721
  Ewald energy   TEWEN  =     -3616.56080017
  -Hartree energ DENC   =     -1089.92014452
  -exchange      EXHF   =         0.00000000
  -V(xc)+E(xc)   XCENC  =       140.87659115
  PAW double counting   =      4375.44154541    -4560.79015700
  entropy T*S    EENTRO =         0.00000000
  eigenvalues    EBANDS =      -399.27124669
  atomic energy  EATOM  =      4914.84034758
  Solvation  Ediel_sol  =         0.00000000
  ---------------------------------------------------
  free energy    TOTEN  =       -16.51337703 eV

  energy without entropy =      -16.51337703  energy(sigma->0) =      -16.51337703


--------------------------------------------------------------------------------------------------------




--------------------------------------- Iteration      1(  14)  ---------------------------------------


    POTLOK:  cpu time    0.0060: real time    0.0064
    SETDIJ:  cpu time    0.0050: real time    0.0051
     EDDAV:  cpu time    0.3882: real time    0.3891
 BZINTS: Fermi energy:  9.622642; 28.000000 electrons
         Band energy:-399.266351;  BLOECHL correction: -0.034710
       DOS:  cpu time    0.0339: real time    0.0340
    CHARGE:  cpu time    0.0147: real time    0.0148
    MIXING:  cpu time    0.0005: real time    0.0005
    --------------------------------------------
      LOOP:  cpu time    0.4483: real time    0.4499

 eigenvalue-minimisations  :  2808
 total energy-change (2. order) : 0.1604568E-05  (-0.1593314E-07)
 number of electron      27.9999999 magnetization       4.4055857
 augmentation part       16.8353954 magnetization       3.4844620

 Broyden mixing:
  rms(total) = 0.62661E-04    rms(broyden)= 0.62443E-04
  rms(prec ) = 0.81007E-04
  weight for this iteration     100.00

 eigenvalues of (default mixing * dielectric matrix)
  average eigenvalue GAMMA=   1.2118
  2.6063  2.4663  1.2892  1.0504  0.8267  0.6319  0.6657  0.6849  0.6849

 Free energy of the ion-electron system (eV)
  ---------------------------------------------------
  alpha Z        PSCENC =       218.87048721
  Ewald energy   TEWEN  =     -3616.56080017
  -Hartree energ DENC   =     -1089.92255179
  -exchange      EXHF   =         0.00000000
  -V(xc)+E(xc)   XCENC  =       140.87642005
  PAW double counting   =      4375.44369529    -4560.79462283
  entropy T*S    EENTRO =         0.00000000
  eigenvalues    EBANDS =      -399.26635076
  atomic energy  EATOM  =      4914.84034758
  Solvation  Ediel_sol  =         0.00000000
  ---------------------------------------------------
  free energy    TOTEN  =       -16.51337543 eV

  energy without entropy =      -16.51337543  energy(sigma->0) =      -16.51337543


--------------------------------------------------------------------------------------------------------




--------------------------------------- Iteration      1(  15)  ---------------------------------------


    POTLOK:  cpu time    0.0060: real time    0.0061
    SETDIJ:  cpu time    0.0048: real time    0.0048
     EDDAV:  cpu time    0.2929: real time    0.2937
 BZINTS: Fermi energy:  9.622612; 28.000000 electrons
         Band energy:-399.267178;  BLOECHL correction: -0.034710
       DOS:  cpu time    0.0339: real time    0.0340
    --------------------------------------------
      LOOP:  cpu time    0.3375: real time    0.3386

 eigenvalue-minimisations  :  1788
 total energy-change (2. order) : 0.2744127E-07  (-0.1169786E-08)
 number of electron      27.9999999 magnetization       4.4055857
 augmentation part       16.8353954 magnetization       3.4844620

 Free energy of the ion-electron system (eV)
  ---------------------------------------------------
  alpha Z        PSCENC =       218.87048721
  Ewald energy   TEWEN  =     -3616.56080017
  -Hartree energ DENC   =     -1089.92218749
  -exchange      EXHF   =         0.00000000
  -V(xc)+E(xc)   XCENC  =       140.87645078
  PAW double counting   =      4375.43926559    -4560.78976101
  entropy T*S    EENTRO =         0.00000000
  eigenvalues    EBANDS =      -399.26717788
  atomic energy  EATOM  =      4914.84034758
  Solvation  Ediel_sol  =         0.00000000
  ---------------------------------------------------
  free energy    TOTEN  =       -16.51337540 eV

  energy without entropy =      -16.51337540  energy(sigma->0) =      -16.51337540


--------------------------------------------------------------------------------------------------------




 average (electrostatic) potential at core
  the test charge radii are     0.9500
  (the norm of the test charge is              1.0000)
       1 -73.6650       2 -73.6650
 
 
 
 E-fermi :   9.6226     XC(G=0): -13.6243     alpha+bet :-17.4163


 spin component 1

 k-point     1 :       0.0500    0.0500    0.0500
  band No.  band energies     occupation 
      1     -44.5603      1.00000
      2     -44.5603      1.00000
      3     -44.5460      1.00000
      4     -44.2891      1.00000
      5     -44.2744      1.00000
      6     -44.2744      1.00000
      7       1.3979      1.00000
      8       4.9385      1.00000
      9       4.9385      1.00000
     10       7.3049      1.00000
     11       7.3049      1.00000
     12       7.4309      1.00000
     13       8.5804      1.00000
     14       8.5804      1.00000
     15       9.4946      1.00000
     16       9.6870      0.60102
     17       9.6870      0.00981
     18      19.1993      0.00000
     19      19.1993      0.00000
     20      19.4413      0.00000
     21      25.8101      0.00000
     22      25.8101      0.00000
     23      30.6975      0.00000
     24      33.3487      0.00000

 k-point     2 :       0.1500    0.0500    0.0500
  band No.  band energies     occupation 
      1     -44.5663      1.00000
      2     -44.5455      1.00000
      3     -44.5239      1.00000
      4     -44.3209      1.00000
      5     -44.2876      1.00000
      6     -44.2799      1.00000
      7       1.8015      1.00000
      8       5.1063      1.00000
      9       5.1085      1.00000
     10       7.2464      1.00000
     11       7.2946      1.00000
     12       7.5991      1.00000
     13       8.4143      1.00000
     14       8.6554      1.00000
     15       9.1040      1.00000
     16       9.3724      1.02105
     17       9.6656      0.13630
     18      17.0986      0.00000
     19      19.9183      0.00000
     20      20.0954      0.00000
     21      25.9617      0.00000
     22      27.1438      0.00000
     23      31.5525      0.00000
     24      32.1500      0.00000

 k-point     3 :       0.2500    0.0500    0.0500
  band No.  band energies     occupation 
      1     -44.5635      1.00000
      2     -44.5177      1.00000
      3     -44.4931      1.00000
      4     -44.3686      1.00000
      5     -44.3130      1.00000
      6     -44.3000      1.00000
      7       2.5670      1.00000
      8       5.3677      1.00000
      9       5.4276      1.00000
     10       7.2424      1.00000
     11       7.2875      1.00000
     12       7.8416      1.00000
     13       8.1079      1.00000
     14       8.6066      1.00000
     15       8.7946      1.00000
     16       8.8889      1.00000
     17       9.4857      1.03938
     18      14.5754      0.00000
     19      21.1874      0.00000
     20      21.3582      0.00000
     21      26.2943      0.00000
     22      27.9717      0.00000
     23      29.6287      0.00000
     24      31.2958      0.00000

 k-point     4 :       0.3500    0.0500    0.0500
  band No.  band energies     occupation 
      1     -44.5490      1.00000
      2     -44.4798      1.00000
      3     -44.4551      1.00000
      4     -44.4240      1.00000
      5     -44.3483      1.00000
      6     -44.3313      1.00000
      7       3.5891      1.00000
      8       5.5403      1.00000
      9       5.8727      1.00000
     10       7.2458      1.00000
     11       7.3213      1.00000
     12       7.7680      1.00000
     13       8.1304      1.00000
     14       8.1503      1.00000
     15       8.3929      1.00000
     16       9.0191      1.00000
     17       9.2002      1.03864
     18      12.2830      0.00000
     19      22.7942      0.00000
     20      23.0070      0.00000
     21      26.8753      0.00000
     22      27.8747      0.00000
     23      28.6104      0.00000
     24      29.1472      0.00000

 k-point     5 :       0.4500    0.0500    0.0500
  band No.  band energies     occupation 
      1     -44.5202      1.00000
      2     -44.4772      1.00000
      3     -44.4359      1.00000
      4     -44.4129      1.00000
      5     -44.3906      1.00000
      6     -44.3702      1.00000
      7       4.6409      1.00000
      8       5.3581      1.00000
      9       6.3948      1.00000
     10       6.9175      1.00000
     11       7.4991      1.00000
     12       7.7312      1.00000
     13       7.7625      1.00000
     14       7.9855      1.00000
     15       8.4990      1.00000
     16       8.8573      1.00000
     17       9.4831      0.98554
     18      10.5195      0.00000
     19      24.5321      0.00000
     20      24.9043      0.00000
     21      26.2265      0.00000
     22      26.9670      0.00000
     23      27.8210      0.00000
     24      29.2506      0.00000

 k-point     6 :       0.1500    0.1500    0.0500
  band No.  band energies     occupation 
      1     -44.5803      1.00000
      2     -44.5367      1.00000
      3     -44.4915      1.00000
      4     -44.3624      1.00000
      5     -44.2978      1.00000
      6     -44.2745      1.00000
      7       2.1894      1.00000
      8       5.2393      1.00000
      9       5.2980      1.00000
     10       7.0938      1.00000
     11       7.2375      1.00000
     12       7.8700      1.00000
     13       8.4386      1.00000
     14       8.6106      1.00000
     15       8.6246      1.00000
     16       9.1495      1.00690
     17       9.7346      0.03150
     18      17.1956      0.00000
     19      18.2808      0.00000
     20      20.6506      0.00000
     21      26.6282      0.00000
     22      28.5391      0.00000
     23      29.9219      0.00000
     24      31.9694      0.00000

 k-point     7 :       0.2500    0.1500    0.0500
  band No.  band energies     occupation 
      1     -44.5896      1.00000
      2     -44.5111      1.00000
      3     -44.4537      1.00000
      4     -44.4171      1.00000
      5     -44.3208      1.00000
      6     -44.2819      1.00000
      7       2.9157      1.00000
      8       5.4556      1.00000
      9       5.6207      1.00000
     10       6.9882      1.00000
     11       7.1825      1.00000
     12       8.1057      1.00000
     13       8.2002      1.00000
     14       8.2826      1.00000
     15       8.7216      1.00000
     16       8.7244      1.00000
     17       9.6884      0.28941
     18      14.9836      0.00000
     19      19.0118      0.00000
     20      21.7954      0.00000
     21      27.0198      0.00000
     22      27.7476      0.00000
     23      29.9238      0.00000
     24      30.6411      0.00000

 k-point     8 :       0.3500    0.1500    0.0500
  band No.  band energies     occupation 
      1     -44.5855      1.00000
      2     -44.4756      1.00000
      3     -44.4749      1.00000
      4     -44.4129      1.00000
      5     -44.3533      1.00000
      6     -44.3029      1.00000
      7       3.8579      1.00000
      8       5.5956      1.00000
      9       6.0118      1.00000
     10       6.9646      1.00000
     11       7.1190      1.00000
     12       7.6671      1.00000
     13       8.0932      1.00000
     14       8.3377      1.00000
     15       8.5642      1.00000
     16       8.9632      1.00000
     17       9.4967      0.92402
     18      12.6531      0.00000
     19      20.3759      0.00000
     20      23.3118      0.00000
     21      25.6603      0.00000
     22      27.5889      0.00000
     23      28.7789      0.00000
     24      30.9262      0.00000

 k-point     9 :       0.4500    0.1500    0.0500
  band No.  band energies     occupation 
      1     -44.5645      1.00000
      2     -44.5265      1.00000
      3     -44.4346      1.00000
      4     -44.3924      1.00000
      5     -44.3720      1.00000
      6     -44.3341      1.00000
      7       4.7817      1.00000
      8       5.4045      1.00000
      9       6.4368      1.00000
     10       6.8150      1.00000
     11       7.1498      1.00000
     12       7.3557      1.00000
     13       8.0550      1.00000
     14       8.1285      1.00000
     15       8.8893      1.00000
     16       9.2081      1.00000
     17       9.5411      0.77864
     18      10.7642      0.00000
     19      21.9647      0.00000
     20      23.7291      0.00000
     21      25.0471      0.00000
     22      26.8829      0.00000
     23      28.4944      0.00000
     24      29.8472      0.00000

 k-point    10 :       0.2500    0.2500    0.0500
  band No.  band energies     occupation 
      1     -44.6128      1.00000
      2     -44.4905      1.00000
      3     -44.4768      1.00000
      4     -44.4108      1.00000
      5     -44.3386      1.00000
      6     -44.2746      1.00000
      7       3.5387      1.00000
      8       5.5106      1.00000
      9       6.0142      1.00000
     10       6.7715      1.00000
     11       7.1537      1.00000
     12       7.5987      1.00000
     13       8.4263      1.00000
     14       8.4288      1.00000
     15       8.6229      1.00000
     16       8.6648      1.00000
     17       9.8078     -0.03388
     18      14.8628      0.00000
     19      17.4656      0.00000
     20      22.7545      0.00000
     21      25.3833      0.00000
     22      27.3661      0.00000
     23      30.0594      0.00000
     24      32.3850      0.00000

 k-point    11 :       0.3500    0.2500    0.0500
  band No.  band energies     occupation 
      1     -44.6220      1.00000
      2     -44.5350      1.00000
      3     -44.4616      1.00000
      4     -44.3692      1.00000
      5     -44.3639      1.00000
      6     -44.2818      1.00000
      7       4.2635      1.00000
      8       5.4679      1.00000
      9       6.4673      1.00000
     10       6.6640      1.00000
     11       7.1894      1.00000
     12       7.2436      1.00000
     13       8.2728      1.00000
     14       8.4046      1.00000
     15       8.8096      1.00000
     16       9.0698      1.02187
     17       9.7579      0.00402
     18      13.0480      0.00000
     19      18.1033      0.00000
     20      23.1677      0.00000
     21      24.0659      0.00000
     22      27.8479      0.00000
     23      28.7849      0.00000
     24      31.4416      0.00000

 k-point    12 :       0.4500    0.2500    0.0500
  band No.  band energies     occupation 
      1     -44.6123      1.00000
      2     -44.5824      1.00000
      3     -44.4285      1.00000
      4     -44.3948      1.00000
      5     -44.3320      1.00000
      6     -44.3019      1.00000
      7       4.8666      1.00000
      8       5.2597      1.00000
      9       6.6823      1.00000
     10       6.7709      1.00000
     11       7.0122      1.00000
     12       7.2242      1.00000
     13       8.3124      1.00000
     14       8.3953      1.00000
     15       9.1811      1.00000
     16       9.5468      0.95178
     17       9.7286      0.02984
     18      11.1092      0.00000
     19      19.4886      0.00000
     20      21.1929      0.00000
     21      25.5956      0.00000
     22      27.2066      0.00000
     23      28.6468      0.00000
     24      29.8689      0.00000

 k-point    13 :       0.3500    0.3500    0.0500
  band No.  band energies     occupation 
      1     -44.6451      1.00000
      2     -44.5895      1.00000
      3     -44.4423      1.00000
      4     -44.3794      1.00000
      5     -44.3309      1.00000
      6     -44.2747      1.00000
      7       4.6032      1.00000
      8       5.2502      1.00000
      9       6.4673      1.00000
     10       6.7901      1.00000
     11       7.0689      1.00000
     12       7.8004      1.00000
     13       8.3289      1.00000
     14       8.5819      1.00000
     15       8.7313      1.00000
     16       9.5045      0.96291
     17       9.8584     -0.00497
     18      12.6723      0.00000
     19      17.0752      0.00000
     20      20.9324      0.00000
     21      25.1099      0.00000
     22      28.2077      0.00000
     23      28.4078      0.00000
     24      30.7487      0.00000

 k-point    14 :       0.4500    0.3500    0.0500
  band No.  band energies     occupation 
      1     -44.6484      1.00000
      2     -44.6293      1.00000
      3     -44.4205      1.00000
      4     -44.3988      1.00000
      5     -44.3010      1.00000
      6     -44.2816      1.00000
      7       4.8278      1.00000
      8       5.0275      1.00000
      9       6.4160      1.00000
     10       6.5254      1.00000
     11       7.6335      1.00000
     12       8.0156      1.00000
     13       8.4770      1.00000
     14       8.6082      1.00000
     15       9.2343      1.00000
     16       9.7474      0.31708
     17      10.0489      0.00000
     18      11.2872      0.00000
     19      17.6521      0.00000
     20      19.0563      0.00000
     21      26.3159      0.00000
     22      27.4989      0.00000
     23      28.8182      0.00000
     24      29.7269      0.00000

 k-point    15 :       0.4500    0.4500    0.0500
  band No.  band energies     occupation 
      1     -44.6650      1.00000
      2     -44.6585      1.00000
      3     -44.4121      1.00000
      4     -44.4046      1.00000
      5     -44.2815      1.00000
      6     -44.2748      1.00000
      7       4.7956      1.00000
      8       4.8570      1.00000
      9       6.2867      1.00000
     10       6.3242      1.00000
     11       8.3604      1.00000
     12       8.5983      1.00000
     13       8.6194      1.00000
     14       8.7802      1.00000
     15       9.2762      1.00000
     16       9.7024      0.28337
     17      10.4350      0.00000
     18      10.9855      0.00000
     19      16.9428      0.00000
     20      17.5289      0.00000
     21      27.0343      0.00000
     22      27.4878      0.00000
     23      29.0846      0.00000
     24      29.4296      0.00000

 k-point    16 :       0.1500    0.1500    0.1500
  band No.  band energies     occupation 
      1     -44.5646      1.00000
      2     -44.5646      1.00000
      3     -44.4557      1.00000
      4     -44.3999      1.00000
      5     -44.2886      1.00000
      6     -44.2886      1.00000
      7       2.5666      1.00000
      8       5.4265      1.00000
      9       5.4265      1.00000
     10       7.0363      1.00000
     11       7.0363      1.00000
     12       8.0860      1.00000
     13       8.1861      1.00000
     14       8.5281      1.00000
     15       8.5281      1.00000
     16       9.4248      0.99979
     17       9.4248      1.11247
     18      17.8410      0.00000
     19      17.8410      0.00000
     20      19.2369      0.00000
     21      28.7873      0.00000
     22      28.7873      0.00000
     23      29.7384      0.00000
     24      29.7384      0.00000

 k-point    17 :       0.2500    0.1500    0.1500
  band No.  band energies     occupation 
      1     -44.5848      1.00000
      2     -44.5349      1.00000
      3     -44.4513      1.00000
      4     -44.4176      1.00000
      5     -44.3159      1.00000
      6     -44.2881      1.00000
      7       3.2654      1.00000
      8       5.6657      1.00000
      9       5.6999      1.00000
     10       6.9037      1.00000
     11       6.9350      1.00000
     12       7.5733      1.00000
     13       8.3824      1.00000
     14       8.5850      1.00000
     15       8.6827      1.00000
     16       8.9719      1.00000
     17       9.5062      0.95279
     18      15.4699      0.00000
     19      18.9549      0.00000
     20      19.8766      0.00000
     21      27.5255      0.00000
     22      28.5414      0.00000
     23      29.3029      0.00000
     24      30.5090      0.00000

 k-point    18 :       0.3500    0.1500    0.1500
  band No.  band energies     occupation 
      1     -44.5910      1.00000
      2     -44.5043      1.00000
      3     -44.4944      1.00000
      4     -44.3807      1.00000
      5     -44.3538      1.00000
      6     -44.2988      1.00000
      7       4.1486      1.00000
      8       5.8193      1.00000
      9       5.9789      1.00000
     10       6.7954      1.00000
     11       6.9295      1.00000
     12       7.2681      1.00000
     13       8.2261      1.00000
     14       8.5459      1.00000
     15       8.8082      1.00000
     16       9.1279      1.00000
     17       9.4067      0.92709
     18      13.1242      0.00000
     19      20.3545      0.00000
     20      21.0649      0.00000
     21      25.4922      0.00000
     22      26.4576      0.00000
     23      30.1152      0.00000
     24      31.4555      0.00000

 k-point    19 :       0.4500    0.1500    0.1500
  band No.  band energies     occupation 
      1     -44.5793      1.00000
      2     -44.5493      1.00000
      3     -44.4476      1.00000
      4     -44.3991      1.00000
      5     -44.3472      1.00000
      6     -44.3192      1.00000
      7       4.9803      1.00000
      8       5.5623      1.00000
[...]
     19      18.3220      0.00000
     20      20.7969      0.00000
     21      22.3835      0.00000
     22      24.8362      0.00000
     23      26.2505      0.00000
     24      30.1359      0.00000

 k-point    30 :       0.4500    0.3500    0.2500
  band No.  band energies     occupation 
      1     -42.0275      1.00000
      2     -42.0272      1.00000
      3     -41.8760      1.00000
      4     -41.8247      1.00000
      5     -41.7185      1.00000
      6     -41.7142      1.00000
      7       6.7330      1.00000
      8       7.0452      1.00000
      9       7.9676      1.00000
     10       7.9785      1.00000
     11       8.3646      1.00000
     12       8.4914      1.00000
     13      11.1842      0.00000
     14      11.2347      0.00000
     15      11.5150      0.00000
     16      11.5333      0.00000
     17      13.8172      0.00000
     18      14.8896      0.00000
     19      19.1260      0.00000
     20      20.5766      0.00000
     21      21.9127      0.00000
     22      23.4380      0.00000
     23      26.7659      0.00000
     24      28.2362      0.00000

 k-point    31 :       0.4500    0.4500    0.2500
  band No.  band energies     occupation 
      1     -42.0354      1.00000
      2     -42.0347      1.00000
      3     -41.8566      1.00000
      4     -41.8358      1.00000
      5     -41.7249      1.00000
      6     -41.7211      1.00000
      7       6.8531      1.00000
      8       6.9336      1.00000
      9       7.8849      1.00000
     10       7.8998      1.00000
     11       8.6613      1.00000
     12       8.7305      1.00000
     13      11.3009      0.00000
     14      11.3257      0.00000
     15      11.5265      0.00000
     16      11.5391      0.00000
     17      14.4940      0.00000
     18      15.0168      0.00000
     19      18.3895      0.00000
     20      19.0492      0.00000
     21      23.0061      0.00000
     22      24.1212      0.00000
     23      25.2328      0.00000
     24      26.3291      0.00000

 k-point    32 :       0.3500    0.3500    0.3500
  band No.  band energies     occupation 
      1     -42.0115      1.00000
      2     -41.9612      1.00000
      3     -41.9612      1.00000
      4     -41.7726      1.00000
      5     -41.7726      1.00000
      6     -41.7224      1.00000
      7       6.9264      1.00000
      8       7.5005      1.00000
      9       7.9278      1.00000
     10       7.9278      1.00000
     11       8.0743      1.00000
     12       8.0743      1.00000
     13      11.3764      0.00000
     14      11.3764      0.00000
     15      11.4153      0.00000
     16      11.4153      0.00000
     17      13.8655      0.00000
     18      17.4972      0.00000
     19      17.4972      0.00000
     20      19.8863      0.00000
     21      22.8235      0.00000
     22      22.8235      0.00000
     23      24.1458      0.00000
     24      28.0396      0.00000

 k-point    33 :       0.4500    0.3500    0.3500
  band No.  band energies     occupation 
      1     -42.0062      1.00000
      2     -41.9903      1.00000
      3     -41.8985      1.00000
      4     -41.8335      1.00000
      5     -41.7563      1.00000
      6     -41.7375      1.00000
      7       7.2800      1.00000
      8       7.3823      1.00000
      9       7.8724      1.00000
     10       7.9208      1.00000
     11       8.0469      1.00000
     12       8.2172      1.00000
     13      11.3597      0.00000
     14      11.3850      0.00000
     15      11.5028      0.00000
     16      11.5140      0.00000
     17      14.8063      0.00000
     18      16.0277      0.00000
     19      19.1307      0.00000
     20      20.4297      0.00000
     21      20.9114      0.00000
     22      21.6693      0.00000
     23      24.5507      0.00000
     24      26.0867      0.00000

 k-point    34 :       0.4500    0.4500    0.3500
  band No.  band energies     occupation 
      1     -41.9890      1.00000
      2     -41.9778      1.00000
      3     -41.8847      1.00000
      4     -41.8485      1.00000
      5     -41.7788      1.00000
      6     -41.7642      1.00000
      7       7.4285      1.00000
      8       7.4422      1.00000
      9       7.8026      1.00000
     10       7.8456      1.00000
     11       8.1731      1.00000
     12       8.2614      1.00000
     13      11.4437      0.00000
     14      11.4544      0.00000
     15      11.5333      0.00000
     16      11.5376      0.00000
     17      15.8060      0.00000
     18      16.5885      0.00000
     19      18.5408      0.00000
     20      19.5006      0.00000
     21      21.0124      0.00000
     22      22.1184      0.00000
     23      22.9692      0.00000
     24      24.1592      0.00000

 k-point    35 :       0.4500    0.4500    0.4500
  band No.  band energies     occupation 
      1     -41.9441      1.00000
      2     -41.9117      1.00000
      3     -41.9117      1.00000
      4     -41.8431      1.00000
      5     -41.8431      1.00000
      6     -41.8106      1.00000
      7       7.6627      1.00000
      8       7.8093      1.00000
      9       7.8093      1.00000
     10       7.9082      1.00000
     11       7.9534      1.00000
     12       7.9534      1.00000
     13      11.5393      0.00000
     14      11.5393      0.00000
     15      11.5423      0.00000
     16      11.5423      0.00000
     17      17.1204      0.00000
     18      18.3146      0.00000
     19      18.3146      0.00000
     20      20.0017      0.00000
     21      20.1675      0.00000
     22      20.1675      0.00000
     23      21.5179      0.00000
     24      22.3096      0.00000


--------------------------------------------------------------------------------------------------------


 soft charge-density along one line, spin component           1
         0         1         2         3         4         5         6         7         8         9
 total charge-density along one line
 
 soft charge-density along one line, spin component           2
         0         1         2         3         4         5         6         7         8         9
 total charge-density along one line
 
 pseudopotential strength for first ion, spin component:           1
-44.858   0.000  -0.000   7.570  -0.000   0.000  -0.000   0.000
  0.000 -44.858  -0.000  -0.000   7.570   0.000  -0.000   0.000
 -0.000  -0.000 -44.858   0.000   0.000   7.570   0.000  -0.000
  7.570  -0.000   0.000   5.638  -0.000   0.000   0.000  -0.000
 -0.000   7.570   0.000  -0.000   5.638  -0.000   0.000  -0.000
  0.000   0.000   7.570   0.000  -0.000   5.638  -0.000   0.000
 -0.000  -0.000   0.000   0.000   0.000  -0.000  -1.981   0.000
  0.000   0.000  -0.000  -0.000  -0.000   0.000   0.000  -1.981
 -0.000   0.000  -0.000   0.000  -0.000  -0.000   0.000   0.000
 -0.000  -0.000   0.000   0.000   0.000  -0.000   0.000   0.000
 -0.000   0.000  -0.000   0.000  -0.000   0.000  -0.000  -0.000
 -0.000  -0.000   0.000   0.000   0.000  -0.000  -2.496   0.000
  0.000   0.000  -0.000  -0.000  -0.000   0.000   0.000  -2.496
 -0.000   0.000  -0.000   0.000  -0.000   0.000   0.000   0.000
 -0.000  -0.000   0.000   0.000   0.000  -0.000   0.000   0.000
 -0.000   0.000  -0.000   0.000  -0.000  -0.000  -0.000  -0.000
 -0.000  -0.000   0.000  -0.000  -0.000   0.000   0.000  -0.000
 -0.000  -0.000   0.000  -0.000  -0.000   0.000   0.000  -0.000
 pseudopotential strength for first ion, spin component:           2
-42.886   0.000   0.000   6.737  -0.000  -0.000  -0.000   0.000
  0.000 -42.886   0.000  -0.000   6.737  -0.000  -0.000   0.000
  0.000   0.000 -42.886  -0.000  -0.000   6.737   0.000  -0.000
  6.737  -0.000  -0.000   5.866  -0.000  -0.000   0.000  -0.000
 -0.000   6.737  -0.000  -0.000   5.866  -0.000   0.000  -0.000
 -0.000  -0.000   6.737  -0.000  -0.000   5.866  -0.000   0.000
 -0.000  -0.000   0.000   0.000   0.000  -0.000  -0.455   0.000
  0.000   0.000  -0.000  -0.000  -0.000   0.000   0.000  -0.455
 -0.000   0.000   0.000   0.000  -0.000   0.000   0.000   0.000
 -0.000  -0.000   0.000   0.000  -0.000  -0.000   0.000   0.000
 -0.000   0.000  -0.000   0.000  -0.000   0.000  -0.000  -0.000
 -0.000  -0.000   0.000  -0.000   0.000  -0.000  -0.995   0.000
  0.000   0.000  -0.000  -0.000  -0.000   0.000   0.000  -0.995
 -0.000   0.000  -0.000   0.000  -0.000  -0.000   0.000   0.000
 -0.000  -0.000   0.000   0.000   0.000  -0.000   0.000   0.000
 -0.000   0.000  -0.000   0.000  -0.000  -0.000  -0.000  -0.000
 -0.000  -0.000  -0.000  -0.000  -0.000   0.000  -0.000  -0.000
 -0.000  -0.000  -0.000  -0.000  -0.000   0.000  -0.000  -0.000
 total augmentation occupancy for first ion, spin component:           1
  1.992   0.000   0.000  -0.026  -0.000   0.000   0.000   0.000  -0.000  -0.000   0.000   0.000   0.000  -0.000  -0.000  -0.000
  0.000   1.992   0.000   0.000  -0.026   0.000   0.000   0.000   0.000   0.000   0.000   0.000   0.000   0.000   0.000   0.000
  0.000   0.000   1.992  -0.000   0.000  -0.026   0.000   0.000   0.000   0.000   0.000   0.000   0.000  -0.000   0.000   0.000
 -0.026  -0.000   0.000   0.201  -0.000  -0.000  -0.000   0.000   0.000  -0.000   0.000  -0.000  -0.000   0.000   0.000  -0.000
  0.000  -0.026   0.000  -0.000   0.201   0.000   0.000  -0.000   0.000   0.000  -0.000   0.000  -0.000   0.000  -0.000   0.000
 -0.000  -0.000  -0.026  -0.000  -0.000   0.201  -0.000  -0.000  -0.000  -0.000   0.000  -0.000   0.000  -0.000  -0.000   0.000
  0.000   0.000   0.000   0.000   0.000   0.000   2.169  -0.000  -0.000  -0.000  -0.000  -1.221  -0.000   0.000  -0.000   0.000
  0.000   0.000   0.000   0.000   0.000   0.000  -0.000   2.169   0.000   0.000   0.000   0.000  -1.221   0.000   0.000  -0.000
 -0.000   0.000   0.000  -0.000   0.000  -0.000  -0.000   0.000   3.408   0.000  -0.000  -0.000  -0.000  -2.183   0.000  -0.000
  0.000   0.000   0.000   0.000   0.000   0.000   0.000   0.000   0.000   2.169  -0.000   0.000   0.000   0.000  -1.221   0.000
  0.000   0.000  -0.000   0.000   0.000  -0.000   0.000   0.000   0.000  -0.000   3.408  -0.000   0.000   0.000  -0.000  -2.183
  0.000   0.000   0.000  -0.000   0.000  -0.000  -1.221   0.000  -0.000   0.000  -0.000   1.649  -0.000   0.000  -0.000   0.000
  0.000   0.000   0.000  -0.000   0.000   0.000  -0.000  -1.221  -0.000  -0.000   0.000   0.000   1.649   0.000   0.000   0.000
 -0.000   0.000   0.000   0.000   0.000   0.000   0.000  -0.000  -2.183  -0.000   0.000  -0.000   0.000   2.223   0.000   0.000
 -0.000   0.000   0.000   0.000  -0.000  -0.000  -0.000   0.000   0.000  -1.221  -0.000  -0.000  -0.000   0.000   1.649   0.000
 -0.000   0.000   0.000   0.000   0.000   0.000  -0.000   0.000   0.000  -0.000  -2.183   0.000  -0.000  -0.000   0.000   2.223
  0.000   0.000   0.000   0.000   0.000   0.000   0.000   0.000  -0.000  -0.000   0.000  -0.000   0.000   0.000  -0.000   0.000
  0.000   0.000   0.000   0.000   0.000   0.000  -0.000  -0.000   0.000  -0.000   0.000  -0.000  -0.000   0.000  -0.000   0.000
 total augmentation occupancy for first ion, spin component:           2
 -0.002   0.000   0.000  -0.009   0.000   0.000   0.000   0.000   0.000   0.000   0.000   0.000   0.000   0.000   0.000   0.000
  0.000  -0.002   0.000   0.000  -0.009  -0.000   0.000   0.000   0.000   0.000   0.000   0.000   0.000   0.000   0.000   0.000
  0.000   0.000  -0.002   0.000  -0.000  -0.009   0.000   0.000   0.000   0.000   0.000   0.000   0.000  -0.000   0.000   0.000
 -0.009  -0.000  -0.000  -0.020   0.000   0.000   0.000  -0.000  -0.000   0.000   0.000   0.000   0.000   0.000  -0.000   0.000
 -0.000  -0.009   0.000   0.000  -0.020  -0.000   0.000   0.000   0.000  -0.000   0.000   0.000   0.000   0.000   0.000  -0.000
 -0.000   0.000  -0.009   0.000  -0.000  -0.020   0.000   0.000   0.000   0.000   0.000   0.000  -0.000  -0.000   0.000   0.000
  0.000   0.000   0.000  -0.000   0.000  -0.000   1.760  -0.000   0.000   0.000  -0.000  -0.662  -0.000   0.000  -0.000  -0.000
  0.000   0.000   0.000  -0.000  -0.000   0.000   0.000   1.760   0.000   0.000  -0.000   0.000  -0.662  -0.000  -0.000  -0.000
  0.000   0.000   0.000  -0.000   0.000   0.000   0.000   0.000   2.823   0.000   0.000   0.000   0.000  -1.164   0.000   0.000
 -0.000   0.000   0.000   0.000  -0.000  -0.000   0.000   0.000   0.000   1.760   0.000   0.000  -0.000   0.000  -0.662  -0.000
  0.000  -0.000   0.000   0.000   0.000   0.000  -0.000  -0.000   0.000   0.000   2.823  -0.000  -0.000   0.000  -0.000  -1.164
  0.000  -0.000   0.000   0.000  -0.000   0.000  -0.662  -0.000  -0.000  -0.000   0.000  -0.005  -0.000   0.000  -0.000   0.000
  0.000   0.000   0.000   0.000   0.000  -0.000   0.000  -0.662   0.000  -0.000   0.000   0.000  -0.005   0.000  -0.000  -0.000
  0.000   0.000  -0.000  -0.000   0.000  -0.000  -0.000   0.000  -1.164  -0.000   0.000  -0.000  -0.000   0.239   0.000   0.000
 -0.000   0.000   0.000  -0.000   0.000   0.000  -0.000   0.000   0.000  -0.662  -0.000   0.000   0.000   0.000  -0.005  -0.000
  0.000   0.000   0.000   0.000   0.000   0.000   0.000  -0.000   0.000   0.000  -1.164   0.000  -0.000  -0.000   0.000   0.239
  0.000   0.000   0.000   0.000   0.000   0.000   0.000   0.000  -0.000   0.000  -0.000  -0.000   0.000   0.000  -0.000  -0.000
  0.000   0.000  -0.000   0.000   0.000   0.000  -0.000  -0.000  -0.000   0.000   0.000   0.000   0.000   0.000   0.000  -0.000


------------------------ aborting loop because EDIFF is reached ----------------------------------------


 


 total charge     
 
# of ion       s       p       d       tot
------------------------------------------
    1        0.385   6.378   6.075  12.837
    2        0.385   6.378   6.075  12.837
--------------------------------------------------
tot          0.770  12.755  12.149  25.674
 


 magnetization (x)
 
# of ion       s       p       d       tot
------------------------------------------
    1       -0.008  -0.042   2.292   2.243
    2       -0.008  -0.042   2.292   2.243
--------------------------------------------------
tot         -0.015  -0.083   4.584   4.485
 
    CHARGE:  cpu time    0.0138: real time    0.0138
    FORLOC:  cpu time    0.0002: real time    0.0002
    FORNL :  cpu time    0.0813: real time    0.0816
    STRESS:  cpu time    0.2419: real time    0.2425
    FORCOR:  cpu time    0.0056: real time    0.0056
    FORHAR:  cpu time    0.0008: real time    0.0008
    MIXING:  cpu time    0.0005: real time    0.0005
    OFIELD:  cpu time    0.0000: real time    0.0001

  FORCE on cell =-STRESS in cart. coord.  units (eV):
  Direction    XX          YY          ZZ          XY          YZ          ZX
  --------------------------------------------------------------------------------------
  Alpha Z   218.87049   218.87049   218.87049
  Ewald   -1205.52018 -1205.52018 -1205.52018    -0.00000    -0.00000    -0.00000
  Hartree   363.30741   363.30741   363.30741    -0.00000    -0.00000    -0.00000
  E(xc)    -179.78008  -179.78008  -179.78008    -0.00000     0.00000    -0.00000
  Local     289.64277   289.64277   289.64277     0.00000     0.00000    -0.00000
  n-local   -60.16564   -54.16156   -50.55478     2.76504    -1.55629     0.58637
  augment   285.42047   285.42047   285.42047     0.00000     0.00000    -0.00000
  Kinetic   283.97167   282.54238   281.80416     2.93639    -0.72683    -0.08633
  Fock        0.00000     0.00000     0.00000     0.00000     0.00000     0.00000
  -------------------------------------------------------------------------------------
  Total      -0.24704    -0.24704    -0.24704     0.00000     0.00000     0.00000
  in kB     -17.27845   -17.27845   -17.27845     0.00000     0.00000     0.00000
  external pressure =      -17.28 kB  Pullay stress =        0.00 kB


 VOLUME and BASIS-vectors are now :
 -----------------------------------------------------------------------------
  energy-cutoff  :      660.00
  volume of cell :       22.91
      direct lattice vectors                 reciprocal lattice vectors
     2.840052000  0.000000000  0.000000000     0.352106229  0.000000000  0.000000000
     0.000000000  2.840052000  0.000000000     0.000000000  0.352106229  0.000000000
     0.000000000  0.000000000  2.840052000     0.000000000  0.000000000  0.352106229

  length of vectors
     2.840052000  2.840052000  2.840052000     0.352106229  0.352106229  0.352106229


 FORCES acting on ions
    electron-ion (+dipol)            ewald-force                    non-local-force                 convergence-correction
 -----------------------------------------------------------------------------------------------
   -.387E-13 -.293E-13 -.305E-13   -.529E-15 -.103E-14 -.897E-14   -.517E-25 -.517E-25 -.517E-25   0.844E-13 -.298E-14 -.474E-13
   0.805E-12 0.137E-11 -.581E-11   0.472E-14 0.447E-14 0.926E-14   -.517E-25 -.517E-25 -.517E-25   0.154E-13 -.294E-14 -.925E-15
 -----------------------------------------------------------------------------------------------
   0.766E-12 0.134E-11 -.584E-11   0.419E-14 0.343E-14 0.284E-15   -.103E-24 -.103E-24 -.103E-24   0.997E-13 -.593E-14 -.483E-13
 
 
 POSITION                                       TOTAL-FORCE (eV/Angst)
 -----------------------------------------------------------------------------------
      0.00000      0.00000      0.00000        -0.000000     -0.000000     -0.000000
      1.42003      1.42003      1.42003         0.000000      0.000000      0.000000
 -----------------------------------------------------------------------------------
    total drift:                                0.000000      0.000000     -0.000000


--------------------------------------------------------------------------------------------------------



  FREE ENERGIE OF THE ION-ELECTRON SYSTEM (eV)
  ---------------------------------------------------
  free  energy   TOTEN  =       -16.51337540 eV

  energy  without entropy=      -16.51337540  energy(sigma->0) =      -16.51337540
 


--------------------------------------------------------------------------------------------------------


    POTLOK:  cpu time    0.0105: real time    0.0106


--------------------------------------------------------------------------------------------------------


     LOOP+:  cpu time    7.8130: real time    7.8644
    4ORBIT:  cpu time    0.0000: real time    0.0000
 


 total charge     
 
# of ion       s       p       d       tot
------------------------------------------
    1        0.385   6.378   6.075  12.837
    2        0.385   6.378   6.075  12.837
--------------------------------------------------
tot          0.770  12.755  12.149  25.674
 


 magnetization (x)
 
# of ion       s       p       d       tot
------------------------------------------
    1       -0.008  -0.042   2.292   2.243
    2       -0.008  -0.042   2.292   2.243
--------------------------------------------------
tot         -0.015  -0.083   4.584   4.485
 
 BZINTS: Fermi energy:  9.622612; 28.000000 electrons
         Band energy:-399.267178;  BLOECHL correction: -0.034710

 total amount of memory used by VASP MPI-rank0    32828. kBytes
=======================================================================

   base      :      30000. kBytes
   nonlr-proj:        810. kBytes
   fftplans  :        262. kBytes
   grid      :        623. kBytes
   one-center:         31. kBytes
   wavefun   :       1102. kBytes
 
  
  
 General timing and accounting informations for this job:
 ========================================================
  
                  Total CPU time used (sec):        8.559
                            User time (sec):        8.399
                          System time (sec):        0.161
                         Elapsed time (sec):        8.620
  
                   Maximum memory used (kb):       55768.
                   Average memory used (kb):           0.
  
                          Minor page faults:        13961
                          Major page faults:            0
                 Voluntary context switches:          174
