       N       E                     dE             d eps       ncg     rms          rms(c)
DAV:   1     0.133886037995E+03    0.13389E+03   -0.83604E+03  1904   0.192E+03
DAV:   2    -0.188575353084E+01   -0.13577E+03   -0.12218E+03  1740   0.246E+02
DAV:   3    -0.152303670755E+02   -0.13345E+02   -0.12911E+02  1852   0.827E+01
DAV:   4    -0.160003665437E+02   -0.77000E+00   -0.75846E+00  2756   0.183E+01
DAV:   5    -0.160322563065E+02   -0.31890E-01   -0.31844E-01  2228   0.282E+00    0.132E+01
DAV:   6    -0.202030495151E+02   -0.41708E+01   -0.46446E+01  2324   0.672E+01    0.177E+01
DAV:   7    -0.190842076057E+02    0.11188E+01   -0.28683E+00  1924   0.383E+01    0.656E+00
DAV:   8    -0.187606041167E+02    0.32360E+00   -0.14389E+00  2712   0.141E+01    0.254E+00
DAV:   9    -0.188326422507E+02   -0.72038E-01   -0.13617E+00  2160   0.972E+00    0.333E+00
DAV:  10    -0.187484788954E+02    0.84163E-01   -0.81181E-01  2060   0.734E+00    0.105E+00
DAV:  11    -0.187607809816E+02   -0.12302E-01   -0.19171E-02  2492   0.961E-01    0.549E-01
DAV:  12    -0.187592523773E+02    0.15286E-02   -0.53660E-03  2492   0.695E-01    0.513E-01
DAV:  13    -0.187575263677E+02    0.17260E-02   -0.46590E-03  2400   0.565E-01    0.268E-01
DAV:  14    -0.187572699374E+02    0.25643E-03   -0.13863E-03  2664   0.302E-01    0.158E-01
DAV:  15    -0.187573350668E+02   -0.65129E-04   -0.20246E-03  2076   0.373E-01    0.106E-02
DAV:  16    -0.187573372455E+02   -0.21787E-05   -0.92091E-05  2488   0.478E-02    0.953E-03
DAV:  17    -0.187573373901E+02   -0.14460E-06   -0.33369E-06  2432   0.828E-03    0.851E-03
DAV:  18    -0.187573424901E+02   -0.51000E-05   -0.76392E-07  2384   0.640E-03    0.855E-03
DAV:  19    -0.187573311831E+02    0.11307E-04   -0.14772E-06  1892   0.104E-02    0.348E-03
DAV:  20    -0.187573264242E+02    0.47589E-05   -0.42829E-07  1692   0.532E-03    0.166E-03
DAV:  21    -0.187573257542E+02    0.67002E-06   -0.40022E-08  1016   0.179E-03    0.131E-03
DAV:  22    -0.187573276496E+02   -0.18954E-05   -0.71227E-08   976   0.270E-03    0.581E-04
DAV:  23    -0.187573276687E+02   -0.19072E-07   -0.74727E-09   924   0.839E-04
   1 F= -.18757328E+02 E0= -.18757328E+02  d E =0.000000E+00  mag=     6.9956
