       N       E                     dE             d eps       ncg     rms          rms(c)
DAV:   1     0.489007221206E+02    0.48901E+02   -0.54470E+03  5818   0.799E+02
DAV:   2    -0.144465866380E+02   -0.63347E+02   -0.57363E+02  5542   0.169E+02
DAV:   3    -0.162457037059E+02   -0.17991E+01   -0.17723E+01  6226   0.347E+01
DAV:   4    -0.162692775012E+02   -0.23574E-01   -0.23567E-01  6764   0.345E+00
DAV:   5    -0.162698195592E+02   -0.54206E-03   -0.54205E-03  6352   0.470E-01
DAV:   6    -0.162698486779E+02   -0.29119E-04   -0.29119E-04  7114   0.841E-02
DAV:   7    -0.162698488659E+02   -0.18798E-06   -0.18847E-06  4986   0.592E-03
   1 F= -.16269849E+02 E0= -.16250825E+02  d E =-.380469E-01  mag=     3.2116
