=========================================
SLURM_JOB_ID = 29456376
SLURM_JOB_NODELIST = lnode59
SLURM_GPUS = 
SLURM_CPUS_ON_NODE = 8
SLURM_JOB_PARTITION = lenovo
SLURM_TASK_PID = 958437
CUDA_VISIBLE_DEVICES = 
==========================================
 running on    8 total cores
 distrk:  each k-point on    8 cores,    1 groups
 distr:  one band on    8 cores,    1 groups
 using from now: INCAR     
 vasp.5.4.4.18Apr17-6-g9f103f2a35 (build Apr 28 2018 00:24:27) complex          
  
 POSCAR found type information on POSCAR  Mn Bi
 POSCAR found :  2 types and      12 ions
 scaLAPACK will be used

 ----------------------------------------------------------------------------- 
|                                                                             |
|           W    W    AA    RRRRR   N    N  II  N    N   GGGG   !!!           |
|           W    W   A  A   R    R  NN   N  II  NN   N  G    G  !!!           |
|           W    W  A    A  R    R  N N  N  II  N N  N  G       !!!           |
|           W WW W  AAAAAA  RRRRR   N  N N  II  N  N N  G  GGG   !            |
|           WW  WW  A    A  R   R   N   NN  II  N   NN  G    G                |
|           W    W  A    A  R    R  N    N  II  N    N   GGGG   !!!           |
|                                                                             |
|      For optimal performance we recommend to set                            |
|        NCORE= 4 - approx SQRT( number of cores)                             |
|      NCORE specifies how many cores store one orbital (NPAR=cpu/NCORE).     |
|      This setting can  greatly improve the performance of VASP for DFT.     |
|      The default,   NCORE=1            might be grossly inefficient         |
|      on modern multi-core architectures or massively parallel machines.     |
|      Do your own testing !!!!                                               |
|      Unfortunately you need to use the default for GW and RPA calculations. |
|      (for HF NCORE is supported but not extensively tested yet)             |
|                                                                             |
 ----------------------------------------------------------------------------- 

 LDA part: xc-table for Pade appr. of Perdew
 POSCAR, INCAR and KPOINTS ok, starting setup
 FFT: planning ...
 WAVECAR not read
 entering main loop
       N       E                     dE             d eps       ncg     rms          rms(c)
DAV:   1     0.550502424696E+03    0.55050E+03   -0.23517E+04290336   0.138E+03
DAV:   2     0.215213678937E+02   -0.52898E+03   -0.51787E+03290768   0.395E+02
DAV:   3    -0.654402289588E+02   -0.86962E+02   -0.83592E+02478773   0.149E+02
DAV:   4    -0.747647787543E+02   -0.93245E+01   -0.91406E+01509094   0.616E+01
DAV:   5    -0.753835366361E+02   -0.61876E+00   -0.61159E+00481848   0.160E+01    0.236E+01
DAV:   6    -0.852973268810E+02   -0.99138E+01   -0.26963E+02526739   0.156E+02    0.566E+01
DAV:   7    -0.683683914892E+02    0.16929E+02   -0.11779E+02503344   0.866E+01    0.123E+01
DAV:   8    -0.694527680180E+02   -0.10844E+01   -0.24026E+01537672   0.602E+01    0.119E+01
DAV:   9    -0.690178819705E+02    0.43489E+00   -0.83073E+00553559   0.384E+01    0.487E+00
DAV:  10    -0.690344936664E+02   -0.16612E-01   -0.18190E+00510688   0.172E+01    0.384E+00
DAV:  11    -0.689615067260E+02    0.72987E-01   -0.67059E-01551461   0.128E+01    0.192E+00
DAV:  12    -0.689856896970E+02   -0.24183E-01   -0.20604E-01507482   0.541E+00    0.147E+00
DAV:  13    -0.689987868215E+02   -0.13097E-01   -0.62216E-02526354   0.319E+00    0.894E-01
DAV:  14    -0.689970789668E+02    0.17079E-02   -0.29116E-02504984   0.292E+00    0.394E-01
DAV:  15    -0.689977736307E+02   -0.69466E-03   -0.14914E-02499016   0.154E+00    0.275E-01
DAV:  16    -0.689976215108E+02    0.15212E-03   -0.47659E-03507528   0.102E+00    0.115E-01
DAV:  17    -0.689976886903E+02   -0.67179E-04   -0.76693E-04493664   0.269E-01    0.790E-02
DAV:  18    -0.689977079194E+02   -0.19229E-04   -0.18122E-04512528   0.169E-01    0.415E-02
DAV:  19    -0.689977419937E+02   -0.34074E-04   -0.71866E-05505312   0.939E-02    0.253E-02
DAV:  20    -0.689977603977E+02   -0.18404E-04   -0.42301E-05513736   0.845E-02    0.159E-02
DAV:  21    -0.689977672501E+02   -0.68524E-05   -0.23635E-05500792   0.681E-02    0.120E-02
DAV:  22    -0.689977684296E+02   -0.11795E-05   -0.87396E-06335320   0.451E-02    0.465E-03
DAV:  23    -0.689977692788E+02   -0.84923E-06   -0.25284E-06275984   0.141E-02
   1 F= -.68997769E+02 E0= -.68997700E+02  d E =-.208028E-03  mag=    -0.0000
