=========================================
SLURM_JOB_ID = 51754177
SLURM_JOB_NODELIST = lnode47
SLURM_GPUS = 
SLURM_CPUS_ON_NODE = 24
SLURM_JOB_PARTITION = lenovo
SLURM_TASK_PID = 1839263
CUDA_VISIBLE_DEVICES = 
==========================================
 running on   24 total cores
 distrk:  each k-point on   24 cores,    1 groups
 distr:  one band on    4 cores,    6 groups
 using from now: INCAR     
 vasp.5.4.4.18Apr17-6-g9f103f2a35 (build Apr 28 2018 00:24:27) complex          
  
 POSCAR found type information on POSCAR  Fe
 POSCAR found :  1 types and       2 ions
 scaLAPACK will be used

 ----------------------------------------------------------------------------- 
|                                                                             |
|  ADVICE TO THIS USER RUNNING 'VASP/VAMP'   (HEAR YOUR MASTER'S VOICE ...):  |
|                                                                             |
|      You have a (more or less) 'small supercell' and for smaller cells      |
|      it is recommended  to use the reciprocal-space projection scheme!      |
|      The real space optimization is not  efficient for small cells and it   |
|      is also less accurate ...                                              |
|      Therefore set LREAL=.FALSE. in the  INCAR file                         |
|                                                                             |
 ----------------------------------------------------------------------------- 

 LDA part: xc-table for Pade appr. of Perdew
 POSCAR, INCAR and KPOINTS ok, starting setup
 FFT: planning ...
 WAVECAR not read
 entering main loop
       N       E                     dE             d eps       ncg     rms          rms(c)
DAV:   1     0.267742624290E+03    0.26774E+03   -0.24787E+04  3384   0.270E+03
DAV:   2    -0.828813324556E+01   -0.27603E+03   -0.26525E+03  3432   0.489E+02
DAV:   3    -0.162026720099E+02   -0.79145E+01   -0.78967E+01  3552   0.892E+01
DAV:   4    -0.162733482237E+02   -0.70676E-01   -0.70681E-01  4008   0.805E+00
DAV:   5    -0.162746664113E+02   -0.13182E-02   -0.13182E-02  3588   0.103E+00    0.250E+01
DAV:   6    -0.164590500811E+02   -0.18438E+00   -0.74921E+00  3420   0.399E+01    0.691E+00
DAV:   7    -0.165135237681E+02   -0.54474E-01   -0.61508E-01  3408   0.982E+00    0.431E+00
DAV:   8    -0.165232134480E+02   -0.96897E-02   -0.15177E-02  3744   0.149E+00    0.137E+00
DAV:   9    -0.165149338076E+02    0.82796E-02   -0.52900E-03  3624   0.895E-01    0.337E-01
DAV:  10    -0.165147347384E+02    0.19907E-03   -0.22437E-03  3456   0.617E-01    0.441E-02
DAV:  11    -0.165147946460E+02   -0.59908E-04   -0.50070E-05  3660   0.677E-02    0.242E-02
DAV:  12    -0.165148028328E+02   -0.81868E-05   -0.50868E-06  3852   0.232E-02    0.957E-03
DAV:  13    -0.165147961076E+02    0.67252E-05   -0.12795E-06  3492   0.113E-02    0.253E-03
DAV:  14    -0.165147945156E+02    0.15920E-05   -0.15963E-07  2712   0.337E-03    0.656E-04
DAV:  15    -0.165147945201E+02   -0.45693E-08   -0.11389E-08  1728   0.112E-03
   1 F= -.16514795E+02 E0= -.16514795E+02  d E =0.000000E+00  mag=     4.4054
