 vasp.5.4.4.18Apr17-6-g9f103f2a35 (build Apr 28 2018 00:24:27) complex          
  
 executed on             LinuxIFC date 2021.09.07  01:11:31
 running on   24 total cores
 distrk:  each k-point on   24 cores,    1 groups
 distr:  one band on NCORES_PER_BAND=   4 cores,    6 groups


--------------------------------------------------------------------------------------------------------


 INCAR:
 POTCAR:    PAW_PBE Fe_pv 02Aug2007               
 POTCAR:    PAW_PBE Fe_pv 02Aug2007               
   VRHFIN =Fe:  3pd7s1                                                          
   LEXCH  = PE                                                                  
   EATOM  =  2457.4239 eV,  180.6156 Ry                                         
                                                                                
   TITEL  = PAW_PBE Fe_pv 02Aug2007                                             
   LULTRA =        F    use ultrasoft PP ?                                      
   IUNSCR =        1    unscreen: 0-lin 1-nonlin 2-no                           
   RPACOR =    1.750    partial core radius                                     
   POMASS =   55.847; ZVAL   =   14.000    mass and valenz                      
   RCORE  =    2.200    outmost cutoff radius                                   
   RWIGS  =    2.200; RWIGS  =    1.164    wigner-seitz radius (au A)           
   ENMAX  =  293.238; ENMIN  =  219.928 eV                                      
   ICORE  =        3    local potential                                         
   LCOR   =        T    correct aug charges                                     
   LPAW   =        T    paw PP                                                  
   EAUG   =  578.342                                                            
   DEXC   =    0.000                                                            
   RMAX   =    2.249    core radius for proj-oper                               
   RAUG   =    1.300    factor for augmentation sphere                          
   RDEP   =    2.296    radius for radial grids                                 
   RDEPT  =    1.766    core radius for aug-charge                              
                                                                                
   Atomic configuration                                                         
    8 entries                                                                   
     n  l   j            E        occ.                                          
     1  0  0.50     -6993.8440   2.0000                                         
     2  0  0.50      -814.6047   2.0000                                         
     2  1  1.50      -693.3689   6.0000                                         
     3  0  0.50       -89.4732   2.0000                                         
     3  1  1.50       -55.6373   6.0000                                         
     3  2  2.50        -3.8151   7.0000                                         
     4  0  0.50        -4.2551   1.0000                                         
     4  3  2.50        -1.3606   0.0000                                         
   Description                                                                  
     l       E           TYP  RCUT    TYP  RCUT                                 
     1    -55.6372668     23  2.000                                             
     1     -5.4423304     23  2.000                                             
     2     -3.8151096     23  2.200                                             
     2     -5.1756922     23  2.200                                             
     0     -4.2550951     23  2.200                                             
     0     27.2116520     23  2.200                                             
     3     -1.3605826     23  2.200                                             
  local pseudopotential read in
  partial core-charges read in
  partial kinetic energy density read in
  atomic valenz-charges read in
  non local Contribution for L=           1  read in
    real space projection operators read in
  non local Contribution for L=           1  read in
    real space projection operators read in
  non local Contribution for L=           2  read in
    real space projection operators read in
  non local Contribution for L=           2  read in
    real space projection operators read in
  non local Contribution for L=           0  read in
    real space projection operators read in
  non local Contribution for L=           0  read in
    real space projection operators read in
    PAW grid and wavefunctions read in
 
   number of l-projection  operators is LMAX  =           6
   number of lm-projection operators is LMMAX =          18
 

 ----------------------------------------------------------------------------- 
|                                                                             |
|  ADVICE TO THIS USER RUNNING 'VASP/VAMP'   (HEAR YOUR MASTER'S VOICE ...):  |
|                                                                             |
|      You have a (more or less) 'small supercell' and for smaller cells      |
|      it is recommended  to use the reciprocal-space projection scheme!      |
|      The real space optimization is not  efficient for small cells and it   |
|      is also less accurate ...                                              |
|      Therefore set LREAL=.FALSE. in the  INCAR file                         |
|                                                                             |
 ----------------------------------------------------------------------------- 

 Optimization of the real space projectors (new method)

 maximal supplied QI-value         = 17.01
 optimisation between [QCUT,QGAM] = [ 15.82, 31.63] = [ 70.06,280.23] Ry 
 Optimized for a Real-space Cutoff    1.23 Angstroem

   l    n(q)    QCUT    max X(q) W(low)/X(q) W(high)/X(q)  e(spline) 
   1     11    15.817     4.267    0.53E-04    0.29E-03    0.21E-05
   1     11    15.817     5.750    0.77E-04    0.44E-03    0.31E-05
   2     11    15.817    53.656    0.27E-04    0.98E-04    0.37E-06
   2     11    15.817    49.521    0.28E-04    0.10E-03    0.38E-06
   0     12    15.817    31.246    0.23E-04    0.37E-04    0.25E-06
   0     12    15.817    12.201    0.16E-04    0.30E-04    0.21E-06
  PAW_PBE Fe_pv 02Aug2007               :
 energy of atom  1       EATOM=-2457.4239
 kinetic energy error for atom=    0.0008 (will be added to EATOM!!)
 
 
 POSCAR: Fe2                                     
  positions in direct lattice
  No initial velocities read in
 exchange correlation table for  LEXCH =        8
   RHO(1)=    0.500       N(1)  =     2000
   RHO(2)=  100.500       N(2)  =     4000
 


--------------------------------------------------------------------------------------------------------


 ion  position               nearest neighbor table
   1  0.000  0.000  0.000-   2 2.46   2 2.46   2 2.46   2 2.46   2 2.46   2 2.46   2 2.46   2 2.46

   2  0.500  0.500  0.500-   1 2.46   1 2.46   1 2.46   1 2.46   1 2.46   1 2.46   1 2.46   1 2.46

 
  LATTYP: Found a simple cubic cell.
 ALAT       =     2.8400520000
  
  Lattice vectors:
  
 A1 = (   2.8400520000,   0.0000000000,   0.0000000000)
 A2 = (   0.0000000000,   2.8400520000,   0.0000000000)
 A3 = (   0.0000000000,   0.0000000000,   2.8400520000)


Analysis of symmetry for initial positions (statically):
=====================================================================
 Subroutine PRICEL returns following result:
 
  LATTYP: Found a body centered cubic cell.
 ALAT       =     2.8400520000
  
  Lattice vectors:
  
 A1 = (   1.4200260000,   1.4200260000,   1.4200260000)
 A2 = (   1.4200260000,  -1.4200260000,  -1.4200260000)
 A3 = (  -1.4200260000,   1.4200260000,  -1.4200260000)
 
   2 primitive cells build up your supercell.
 

 Routine SETGRP: Setting up the symmetry group for a 
 simple cubic supercell.


 Subroutine GETGRP returns: Found 48 space group operations
 (whereof 48 operations were pure point group operations)
 out of a pool of 48 trial point group operations.


The static configuration has the point symmetry O_h .


Analysis of symmetry for dynamics (positions and initial velocities):
=====================================================================
 Subroutine PRICEL returns following result:
 
  LATTYP: Found a body centered cubic cell.
 ALAT       =     2.8400520000
  
  Lattice vectors:
  
 A1 = (   1.4200260000,   1.4200260000,   1.4200260000)
 A2 = (   1.4200260000,  -1.4200260000,  -1.4200260000)
 A3 = (  -1.4200260000,   1.4200260000,  -1.4200260000)
 
   2 primitive cells build up your supercell.
 

 Routine SETGRP: Setting up the symmetry group for a 
 simple cubic supercell.


 Subroutine GETGRP returns: Found 48 space group operations
 (whereof 48 operations were pure point group operations)
 out of a pool of 48 trial point group operations.


The dynamic configuration has the point symmetry O_h .


Analysis of structural, dynamic, and magnetic symmetry:
=====================================================================
 Subroutine PRICEL returns following result:
 
  LATTYP: Found a body centered cubic cell.
 ALAT       =     2.8400520000
  
  Lattice vectors:
  
 A1 = (   1.4200260000,   1.4200260000,   1.4200260000)
 A2 = (   1.4200260000,  -1.4200260000,  -1.4200260000)
 A3 = (  -1.4200260000,   1.4200260000,  -1.4200260000)
 
   2 primitive cells build up your supercell.
 

 Routine SETGRP: Setting up the symmetry group for a 
 simple cubic supercell.


 Subroutine GETGRP returns: Found 48 space group operations
 (whereof 48 operations were pure point group operations)
 out of a pool of 48 trial point group operations.


The magnetic configuration has the point symmetry O_h .


 Subroutine INISYM returns: Found 48 space group operations
 (whereof 48 operations are pure point group operations),
 and found     2 'primitive' translations

 
 
 KPOINTS: pymatgen with grid density = 2166 / numb

Automatic generation of k-mesh.
Space group operators:
 irot       det(A)        alpha          n_x          n_y          n_z        tau_x        tau_y        tau_z
    1     1.000000     0.000000     1.000000     0.000000     0.000000     0.000000     0.000000     0.000000
    2    -1.000000     0.000000     1.000000     0.000000     0.000000     0.000000     0.000000     0.000000
    3     1.000000   120.000000    -0.577350    -0.577350    -0.577350     0.000000     0.000000     0.000000
    4    -1.000000   120.000000    -0.577350    -0.577350    -0.577350     0.000000     0.000000     0.000000
    5     1.000000   120.000000     0.577350     0.577350     0.577350     0.000000     0.000000     0.000000
    6    -1.000000   120.000000     0.577350     0.577350     0.577350     0.000000     0.000000     0.000000
    7     1.000000    90.000000     0.000000     0.000000    -1.000000     0.000000     0.000000     0.000000
    8    -1.000000    90.000000     0.000000     0.000000    -1.000000     0.000000     0.000000     0.000000
    9     1.000000   180.000000     0.000000     0.707107     0.707107     0.000000     0.000000     0.000000
   10    -1.000000   180.000000     0.000000     0.707107     0.707107     0.000000     0.000000     0.000000
   11     1.000000    90.000000     0.000000     1.000000     0.000000     0.000000     0.000000     0.000000
   12    -1.000000    90.000000     0.000000     1.000000     0.000000     0.000000     0.000000     0.000000
   13     1.000000   180.000000     0.000000     0.000000     1.000000     0.000000     0.000000     0.000000
   14    -1.000000   180.000000     0.000000     0.000000     1.000000     0.000000     0.000000     0.000000
   15     1.000000   120.000000    -0.577350     0.577350     0.577350     0.000000     0.000000     0.000000
   16    -1.000000   120.000000    -0.577350     0.577350     0.577350     0.000000     0.000000     0.000000
   17     1.000000   120.000000    -0.577350     0.577350    -0.577350     0.000000     0.000000     0.000000
   18    -1.000000   120.000000    -0.577350     0.577350    -0.577350     0.000000     0.000000     0.000000
   19     1.000000    90.000000     0.000000     0.000000     1.000000     0.000000     0.000000     0.000000
   20    -1.000000    90.000000     0.000000     0.000000     1.000000     0.000000     0.000000     0.000000
   21     1.000000    90.000000    -1.000000     0.000000     0.000000     0.000000     0.000000     0.000000
   22    -1.000000    90.000000    -1.000000     0.000000     0.000000     0.000000     0.000000     0.000000
   23     1.000000   180.000000     0.707107     0.000000     0.707107     0.000000     0.000000     0.000000
   24    -1.000000   180.000000     0.707107     0.000000     0.707107     0.000000     0.000000     0.000000
   25     1.000000   120.000000     0.577350    -0.577350     0.577350     0.000000     0.000000     0.000000
   26    -1.000000   120.000000     0.577350    -0.577350     0.577350     0.000000     0.000000     0.000000
   27     1.000000   120.000000    -0.577350    -0.577350     0.577350     0.000000     0.000000     0.000000
   28    -1.000000   120.000000    -0.577350    -0.577350     0.577350     0.000000     0.000000     0.000000
   29     1.000000   180.000000     1.000000     0.000000     0.000000     0.000000     0.000000     0.000000
   30    -1.000000   180.000000     1.000000     0.000000     0.000000     0.000000     0.000000     0.000000
   31     1.000000    90.000000     0.000000    -1.000000     0.000000     0.000000     0.000000     0.000000
   32    -1.000000    90.000000     0.000000    -1.000000     0.000000     0.000000     0.000000     0.000000
   33     1.000000   180.000000     0.707107     0.707107     0.000000     0.000000     0.000000     0.000000
   34    -1.000000   180.000000     0.707107     0.707107     0.000000     0.000000     0.000000     0.000000
   35     1.000000    90.000000     1.000000     0.000000     0.000000     0.000000     0.000000     0.000000
   36    -1.000000    90.000000     1.000000     0.000000     0.000000     0.000000     0.000000     0.000000
   37     1.000000   120.000000     0.577350    -0.577350    -0.577350     0.000000     0.000000     0.000000
   38    -1.000000   120.000000     0.577350    -0.577350    -0.577350     0.000000     0.000000     0.000000
   39     1.000000   180.000000     0.000000     1.000000     0.000000     0.000000     0.000000     0.000000
   40    -1.000000   180.000000     0.000000     1.000000     0.000000     0.000000     0.000000     0.000000
   41     1.000000   120.000000     0.577350     0.577350    -0.577350     0.000000     0.000000     0.000000
   42    -1.000000   120.000000     0.577350     0.577350    -0.577350     0.000000     0.000000     0.000000
   43     1.000000   180.000000     0.000000    -0.707107     0.707107     0.000000     0.000000     0.000000
   44    -1.000000   180.000000     0.000000    -0.707107     0.707107     0.000000     0.000000     0.000000
   45     1.000000   180.000000     0.707107    -0.707107     0.000000     0.000000     0.000000     0.000000
   46    -1.000000   180.000000     0.707107    -0.707107     0.000000     0.000000     0.000000     0.000000
   47     1.000000   180.000000     0.707107     0.000000    -0.707107     0.000000     0.000000     0.000000
   48    -1.000000   180.000000     0.707107     0.000000    -0.707107     0.000000     0.000000     0.000000
 
 Subroutine IBZKPT returns following result:
 ===========================================
 
 Found     35 irreducible k-points:
 
 Following reciprocal coordinates:
            Coordinates               Weight
  0.050000  0.050000  0.050000      8.000000
  0.150000  0.050000  0.050000     24.000000
  0.250000  0.050000  0.050000     24.000000
  0.350000  0.050000  0.050000     24.000000
  0.450000  0.050000  0.050000     24.000000
  0.150000  0.150000  0.050000     24.000000
  0.250000  0.150000  0.050000     48.000000
  0.350000  0.150000  0.050000     48.000000
  0.450000  0.150000  0.050000     48.000000
  0.250000  0.250000  0.050000     24.000000
  0.350000  0.250000  0.050000     48.000000
  0.450000  0.250000  0.050000     48.000000
  0.350000  0.350000  0.050000     24.000000
  0.450000  0.350000  0.050000     48.000000
  0.450000  0.450000  0.050000     24.000000
  0.150000  0.150000  0.150000      8.000000
  0.250000  0.150000  0.150000     24.000000
  0.350000  0.150000  0.150000     24.000000
  0.450000  0.150000  0.150000     24.000000
  0.250000  0.250000  0.150000     24.000000
  0.350000  0.250000  0.150000     48.000000
  0.450000  0.250000  0.150000     48.000000
  0.350000  0.350000  0.150000     24.000000
  0.450000  0.350000  0.150000     48.000000
  0.450000  0.450000  0.150000     24.000000
  0.250000  0.250000  0.250000      8.000000
  0.350000  0.250000  0.250000     24.000000
  0.450000  0.250000  0.250000     24.000000
  0.350000  0.350000  0.250000     24.000000
  0.450000  0.350000  0.250000     48.000000
  0.450000  0.450000  0.250000     24.000000
  0.350000  0.350000  0.350000      8.000000
  0.450000  0.350000  0.350000     24.000000
  0.450000  0.450000  0.350000     24.000000
  0.450000  0.450000  0.450000      8.000000
 
 Following cartesian coordinates:
            Coordinates               Weight
  0.017605  0.017605  0.017605      8.000000
  0.052816  0.017605  0.017605     24.000000
  0.088027  0.017605  0.017605     24.000000
  0.123237  0.017605  0.017605     24.000000
  0.158448  0.017605  0.017605     24.000000
  0.052816  0.052816  0.017605     24.000000
  0.088027  0.052816  0.017605     48.000000
  0.123237  0.052816  0.017605     48.000000
  0.158448  0.052816  0.017605     48.000000
  0.088027  0.088027  0.017605     24.000000
  0.123237  0.088027  0.017605     48.000000
  0.158448  0.088027  0.017605     48.000000
  0.123237  0.123237  0.017605     24.000000
  0.158448  0.123237  0.017605     48.000000
  0.158448  0.158448  0.017605     24.000000
  0.052816  0.052816  0.052816      8.000000
  0.088027  0.052816  0.052816     24.000000
  0.123237  0.052816  0.052816     24.000000
  0.158448  0.052816  0.052816     24.000000
  0.088027  0.088027  0.052816     24.000000
  0.123237  0.088027  0.052816     48.000000
  0.158448  0.088027  0.052816     48.000000
  0.123237  0.123237  0.052816     24.000000
  0.158448  0.123237  0.052816     48.000000
  0.158448  0.158448  0.052816     24.000000
  0.088027  0.088027  0.088027      8.000000
  0.123237  0.088027  0.088027     24.000000
  0.158448  0.088027  0.088027     24.000000
  0.123237  0.123237  0.088027     24.000000
  0.158448  0.123237  0.088027     48.000000
  0.158448  0.158448  0.088027     24.000000
  0.123237  0.123237  0.123237      8.000000
  0.158448  0.123237  0.123237     24.000000
  0.158448  0.158448  0.123237     24.000000
  0.158448  0.158448  0.158448      8.000000
 
 TETIRR: Found    466 inequivalent tetrahedra from     6000


--------------------------------------------------------------------------------------------------------




 Dimension of arrays:
   k-points           NKPTS =     35   k-points in BZ     NKDIM =     35   number of bands    NBANDS=     24
   number of dos      NEDOS =    301   number of ions     NIONS =      2
   non local maximal  LDIM  =      6   non local SUM 2l+1 LMDIM =     18
   total plane-waves  NPLWV =  27000
   max r-space proj   IRMAX =   9316   max aug-charges    IRDMAX=  35103
   dimension x,y,z NGX =    30 NGY =   30 NGZ =   30
   dimension x,y,z NGXF=    60 NGYF=   60 NGZF=   60
   support grid    NGXF=    60 NGYF=   60 NGZF=   60
   ions per type =               2
   NGX,Y,Z   is equivalent  to a cutoff of  17.56, 17.56, 17.56 a.u.
   NGXF,Y,Z  is equivalent  to a cutoff of  35.12, 35.12, 35.12 a.u.

 SYSTEM =  unknown system                          
 POSCAR =  Fe2                                     

 Startparameter for this run:
   NWRITE =      2    write-flag & timer
   PREC   = accura    normal or accurate (medium, high low for compatibility)
   ISTART =      0    job   : 0-new  1-cont  2-samecut
   ICHARG =      2    charge: 1-file 2-atom 10-const
   ISPIN  =      2    spin polarized calculation?
   LNONCOLLINEAR =      F non collinear calculations
   LSORBIT =      F    spin-orbit coupling
   INIWAV =      1    electr: 0-lowe 1-rand  2-diag
   LASPH  =      F    aspherical Exc in radial PAW
   METAGGA=      F    non-selfconsistent MetaGGA calc.

 Electronic Relaxation 1
   ENCUT  =  960.0 eV  70.56 Ry    8.40 a.u.   7.17  7.17  7.17*2*pi/ulx,y,z
   ENINI  =  960.0     initial cutoff
   ENAUG  =  578.3 eV  augmentation charge cutoff
   NELM   =    100;   NELMIN=  2; NELMDL= -5     # of ELM steps 
   EDIFF  = 0.1E-06   stopping-criterion for ELM
   LREAL  =      T    real-space projection
   NLSPLINE    = F    spline interpolate recip. space projectors
   LCOMPAT=      F    compatible to vasp.4.4
   GGA_COMPAT  = T    GGA compatible to vasp.4.4-vasp.4.6
   LMAXPAW     = -100 max onsite density
   LMAXMIX     =    2 max onsite mixed and CHGCAR
   VOSKOWN=      0    Vosko Wilk Nusair interpolation
   ROPT   =   -0.00025
 Ionic relaxation
   EDIFFG = 0.1E-05   stopping-criterion for IOM
   NSW    =      0    number of steps for IOM
   NBLOCK =      1;   KBLOCK =      1    inner block; outer block 
   IBRION =     -1    ionic relax: 0-MD 1-quasi-New 2-CG
   NFREE  =      0    steps in history (QN), initial steepest desc. (CG)
   ISIF   =      3    stress and relaxation
   IWAVPR =     10    prediction:  0-non 1-charg 2-wave 3-comb
   ISYM   =      2    0-nonsym 1-usesym 2-fastsym
   LCORR  =      T    Harris-Foulkes like correction to forces

   POTIM  = 0.5000    time-step for ionic-motion
   TEIN   =    0.0    initial temperature
   TEBEG  =    0.0;   TEEND  =   0.0 temperature during run
   SMASS  =  -3.00    Nose mass-parameter (am)
   estimated Nose-frequenzy (Omega)   =  0.10E-29 period in steps =****** mass=  -0.184E-27a.u.
   SCALEE = 1.0000    scale energy and forces
   NPACO  =    256;   APACO  = 16.0  distance and # of slots for P.C.
   PSTRESS=    0.0 pullay stress

  Mass of Ions in am
   POMASS =  55.85
  Ionic Valenz
   ZVAL   =  14.00
  Atomic Wigner-Seitz radii
   RWIGS  =  -1.00
  virtual crystal weights 
   VCA    =   1.00
   NELECT =      28.0000    total number of electrons
   NUPDOWN=      -1.0000    fix difference up-down

 DOS related values:
   EMIN   =  10.00;   EMAX   =-10.00  energy-range for DOS
   EFERMI =   0.00
   ISMEAR =    -5;   SIGMA  =   0.05  broadening in eV -4-tet -1-fermi 0-gaus

 Electronic relaxation 2 (details)
   IALGO  =     38    algorithm
   LDIAG  =      T    sub-space diagonalisation (order eigenvalues)
   LSUBROT=      F    optimize rotation matrix (better conditioning)
   TURBO    =      0    0=normal 1=particle mesh
   IRESTART =      0    0=no restart 2=restart with 2 vectors
   NREBOOT  =      0    no. of reboots
   NMIN     =      0    reboot dimension
   EREF     =   0.00    reference energy to select bands
   IMIX   =      4    mixing-type and parameters
     AMIX     =   0.40;   BMIX     =  1.00
     AMIX_MAG =   1.60;   BMIX_MAG =  1.00
     AMIN     =   0.10
     WC   =   100.;   INIMIX=   1;  MIXPRE=   1;  MAXMIX= -45

 Intra band minimization:
   WEIMIN = 0.0000     energy-eigenvalue tresh-hold
   EBREAK =  0.10E-08  absolut break condition
   DEPER  =   0.30     relativ break condition  

   TIME   =   0.40     timestep for ELM

  volume/ion in A,a.u.               =      11.45        77.29
  Fermi-wavevector in a.u.,A,eV,Ry     =   1.750389  3.307755 41.686364  3.063861
  Thomas-Fermi vector in A             =   2.821117
 
 Write flags
   LWAVE        =      F    write WAVECAR
   LDOWNSAMPLE  =      F    k-point downsampling of WAVECAR
   LCHARG       =      F    write CHGCAR
   LVTOT        =      F    write LOCPOT, total local potential
   LVHAR        =      F    write LOCPOT, Hartree potential only
   LELF         =      F    write electronic localiz. function (ELF)
   LORBIT       =     11    0 simple, 1 ext, 2 COOP (PROOUT), +10 PAW based schemes


 Dipole corrections
   LMONO  =      F    monopole corrections only (constant potential shift)
   LDIPOL =      F    correct potential (dipole corrections)
   IDIPOL =      0    1-x, 2-y, 3-z, 4-all directions 
   EPSILON=  1.0000000 bulk dielectric constant

 Exchange correlation treatment:
   GGA     =    --    GGA type
   LEXCH   =     8    internal setting for exchange type
   VOSKOWN=      0    Vosko Wilk Nusair interpolation
   LHFCALC =     F    Hartree Fock is set to
   LHFONE  =     F    Hartree Fock one center treatment
   AEXX    =    0.0000 exact exchange contribution

 Linear response parameters
   LEPSILON=     F    determine dielectric tensor
   LRPA    =     F    only Hartree local field effects (RPA)
   LNABLA  =     F    use nabla operator in PAW spheres
   LVEL    =     F    velocity operator in full k-point grid
   LINTERFAST=   F  fast interpolation
   KINTER  =     0    interpolate to denser k-point grid
   CSHIFT  =0.1000    complex shift for real part using Kramers Kronig
   OMEGAMAX=  -1.0    maximum frequency
   DEG_THRESHOLD= 0.2000000E-02 threshold for treating states as degnerate
   RTIME   =   -0.100 relaxation time in fs
  (WPLASMAI=    0.000 imaginary part of plasma frequency in eV, 0.658/RTIME)
   DFIELD  = 0.0000000 0.0000000 0.0000000 field for delta impulse in time
 
 Orbital magnetization related:
   ORBITALMAG=     F  switch on orbital magnetization
   LCHIMAG   =     F  perturbation theory with respect to B field
   DQ        =  0.001000  dq finite difference perturbation B field
   LLRAUG    =     F  two centre corrections for induced B field



--------------------------------------------------------------------------------------------------------


 Static calculation
 charge density and potential will be updated during run
 spin polarized calculation
 Variant of blocked Davidson
 Davidson routine will perform the subspace rotation
 perform sub-space diagonalisation
    after iterative eigenvector-optimisation
 modified Broyden-mixing scheme, WC =      100.0
 initial mixing is a Kerker type mixing with AMIX =  0.4000 and BMIX =      1.0000
 Hartree-type preconditioning will be used
 using additional bands           10
 real space projection scheme for non local part
 use partial core corrections
 calculate Harris-corrections to forces 
   (improved forces if not selfconsistent)
 use gradient corrections 
 use of overlap-Matrix (Vanderbilt PP)
 Fermi weights with tetrahedron method with Bloechl corrections


--------------------------------------------------------------------------------------------------------


  energy-cutoff  :      960.00
  volume of cell :       22.91
      direct lattice vectors                 reciprocal lattice vectors
     2.840052000  0.000000000  0.000000000     0.352106229  0.000000000  0.000000000
     0.000000000  2.840052000  0.000000000     0.000000000  0.352106229  0.000000000
     0.000000000  0.000000000  2.840052000     0.000000000  0.000000000  0.352106229

  length of vectors
     2.840052000  2.840052000  2.840052000     0.352106229  0.352106229  0.352106229


 
 k-points in units of 2pi/SCALE and weight: pymatgen with grid density = 2166 / numb
   0.01760531  0.01760531  0.01760531       0.008
   0.05281593  0.01760531  0.01760531       0.024
   0.08802656  0.01760531  0.01760531       0.024
   0.12323718  0.01760531  0.01760531       0.024
   0.15844780  0.01760531  0.01760531       0.024
   0.05281593  0.05281593  0.01760531       0.024
   0.08802656  0.05281593  0.01760531       0.048
   0.12323718  0.05281593  0.01760531       0.048
   0.15844780  0.05281593  0.01760531       0.048
   0.08802656  0.08802656  0.01760531       0.024
   0.12323718  0.08802656  0.01760531       0.048
   0.15844780  0.08802656  0.01760531       0.048
   0.12323718  0.12323718  0.01760531       0.024
   0.15844780  0.12323718  0.01760531       0.048
   0.15844780  0.15844780  0.01760531       0.024
   0.05281593  0.05281593  0.05281593       0.008
   0.08802656  0.05281593  0.05281593       0.024
   0.12323718  0.05281593  0.05281593       0.024
   0.15844780  0.05281593  0.05281593       0.024
   0.08802656  0.08802656  0.05281593       0.024
   0.12323718  0.08802656  0.05281593       0.048
   0.15844780  0.08802656  0.05281593       0.048
   0.12323718  0.12323718  0.05281593       0.024
   0.15844780  0.12323718  0.05281593       0.048
   0.15844780  0.15844780  0.05281593       0.024
   0.08802656  0.08802656  0.08802656       0.008
   0.12323718  0.08802656  0.08802656       0.024
   0.15844780  0.08802656  0.08802656       0.024
   0.12323718  0.12323718  0.08802656       0.024
   0.15844780  0.12323718  0.08802656       0.048
   0.15844780  0.15844780  0.08802656       0.024
   0.12323718  0.12323718  0.12323718       0.008
   0.15844780  0.12323718  0.12323718       0.024
   0.15844780  0.15844780  0.12323718       0.024
   0.15844780  0.15844780  0.15844780       0.008
 
 k-points in reciprocal lattice and weights: pymatgen with grid density = 2166 / numb
   0.05000000  0.05000000  0.05000000       0.008
   0.15000000  0.05000000  0.05000000       0.024
   0.25000000  0.05000000  0.05000000       0.024
   0.35000000  0.05000000  0.05000000       0.024
   0.45000000  0.05000000  0.05000000       0.024
   0.15000000  0.15000000  0.05000000       0.024
   0.25000000  0.15000000  0.05000000       0.048
   0.35000000  0.15000000  0.05000000       0.048
   0.45000000  0.15000000  0.05000000       0.048
   0.25000000  0.25000000  0.05000000       0.024
   0.35000000  0.25000000  0.05000000       0.048
   0.45000000  0.25000000  0.05000000       0.048
   0.35000000  0.35000000  0.05000000       0.024
   0.45000000  0.35000000  0.05000000       0.048
   0.45000000  0.45000000  0.05000000       0.024
   0.15000000  0.15000000  0.15000000       0.008
   0.25000000  0.15000000  0.15000000       0.024
   0.35000000  0.15000000  0.15000000       0.024
   0.45000000  0.15000000  0.15000000       0.024
   0.25000000  0.25000000  0.15000000       0.024
   0.35000000  0.25000000  0.15000000       0.048
   0.45000000  0.25000000  0.15000000       0.048
   0.35000000  0.35000000  0.15000000       0.024
   0.45000000  0.35000000  0.15000000       0.048
   0.45000000  0.45000000  0.15000000       0.024
   0.25000000  0.25000000  0.25000000       0.008
   0.35000000  0.25000000  0.25000000       0.024
   0.45000000  0.25000000  0.25000000       0.024
   0.35000000  0.35000000  0.25000000       0.024
   0.45000000  0.35000000  0.25000000       0.048
   0.45000000  0.45000000  0.25000000       0.024
   0.35000000  0.35000000  0.35000000       0.008
   0.45000000  0.35000000  0.35000000       0.024
   0.45000000  0.45000000  0.35000000       0.024
   0.45000000  0.45000000  0.45000000       0.008
 
 position of ions in fractional coordinates (direct lattice) 
   0.00000000  0.00000000  0.00000000
   0.50000000  0.50000000  0.50000000
 
 position of ions in cartesian coordinates  (Angst):
   0.00000000  0.00000000  0.00000000
   1.42002600  1.42002600  1.42002600
 


--------------------------------------------------------------------------------------------------------


 k-point  1 :   0.0500 0.0500 0.0500  plane waves:    1539
 k-point  2 :   0.1500 0.0500 0.0500  plane waves:    1539
 k-point  3 :   0.2500 0.0500 0.0500  plane waves:    1539
 k-point  4 :   0.3500 0.0500 0.0500  plane waves:    1544
 k-point  5 :   0.4500 0.0500 0.0500  plane waves:    1543
 k-point  6 :   0.1500 0.1500 0.0500  plane waves:    1543
 k-point  7 :   0.2500 0.1500 0.0500  plane waves:    1543
 k-point  8 :   0.3500 0.1500 0.0500  plane waves:    1544
 k-point  9 :   0.4500 0.1500 0.0500  plane waves:    1550
 k-point 10 :   0.2500 0.2500 0.0500  plane waves:    1556
 k-point 11 :   0.3500 0.2500 0.0500  plane waves:    1551
 k-point 12 :   0.4500 0.2500 0.0500  plane waves:    1547
 k-point 13 :   0.3500 0.3500 0.0500  plane waves:    1561
 k-point 14 :   0.4500 0.3500 0.0500  plane waves:    1559
 k-point 15 :   0.4500 0.4500 0.0500  plane waves:    1554
 k-point 16 :   0.1500 0.1500 0.1500  plane waves:    1541
 k-point 17 :   0.2500 0.1500 0.1500  plane waves:    1536
 k-point 18 :   0.3500 0.1500 0.1500  plane waves:    1540
 k-point 19 :   0.4500 0.1500 0.1500  plane waves:    1549
 k-point 20 :   0.2500 0.2500 0.1500  plane waves:    1548
 k-point 21 :   0.3500 0.2500 0.1500  plane waves:    1547
 k-point 22 :   0.4500 0.2500 0.1500  plane waves:    1549
 k-point 23 :   0.3500 0.3500 0.1500  plane waves:    1551
 k-point 24 :   0.4500 0.3500 0.1500  plane waves:    1552
 k-point 25 :   0.4500 0.4500 0.1500  plane waves:    1548
 k-point 26 :   0.2500 0.2500 0.2500  plane waves:    1550
 k-point 27 :   0.3500 0.2500 0.2500  plane waves:    1547
 k-point 28 :   0.4500 0.2500 0.2500  plane waves:    1542
 k-point 29 :   0.3500 0.3500 0.2500  plane waves:    1545
 k-point 30 :   0.4500 0.3500 0.2500  plane waves:    1542
 k-point 31 :   0.4500 0.4500 0.2500  plane waves:    1553
 k-point 32 :   0.3500 0.3500 0.3500  plane waves:    1544
 k-point 33 :   0.4500 0.3500 0.3500  plane waves:    1544
 k-point 34 :   0.4500 0.4500 0.3500  plane waves:    1549
 k-point 35 :   0.4500 0.4500 0.4500  plane waves:    1544

 maximum and minimum number of plane-waves per node :       404      361

 maximum number of plane-waves:      1561
 maximum index in each direction: 
   IXMAX=    7   IYMAX=    7   IZMAX=    7
   IXMIN=   -7   IYMIN=   -7   IZMIN=   -7


 real space projection operators:
  total allocation   :       2543.91 KBytes
  max/ min on nodes  :        672.33        599.62


 parallel 3D FFT for wavefunctions:
    minimum data exchange during FFTs selected (reduces bandwidth)
 parallel 3D FFT for charge:
    minimum data exchange during FFTs selected (reduces bandwidth)


 total amount of memory used by VASP MPI-rank0    34990. kBytes
=======================================================================

   base      :      30000. kBytes
   nonlr-proj:       1144. kBytes
   fftplans  :        580. kBytes
   grid      :       1381. kBytes
   one-center:         31. kBytes
   wavefun   :       1854. kBytes
 
     INWAV:  cpu time    0.0000: real time    0.0001
 Broyden mixing: mesh for mixing (old mesh)
   NGX = 15   NGY = 15   NGZ = 15
  (NGX  = 60   NGY  = 60   NGZ  = 60)
  gives a total of   3375 points

 initial charge density was supplied:
 charge density of overlapping atoms calculated
 number of electron      28.0000000 magnetization      10.0000000
 keeping initial charge density in first step


--------------------------------------------------------------------------------------------------------


 Maximum index for non-local projection operator         2535
 Maximum index for augmentation-charges         2070 (set IRDMAX)


--------------------------------------------------------------------------------------------------------


 First call to EWALD:  gamma=   0.624
 Maximum number of real-space cells 3x 3x 3
 Maximum number of reciprocal cells 3x 3x 3

    FEWALD:  cpu time    0.0013: real time    0.0013


--------------------------------------- Iteration      1(   1)  ---------------------------------------


    POTLOK:  cpu time    0.0141: real time    0.0142
    SETDIJ:  cpu time    0.0077: real time    0.0078
     EDDAV:  cpu time    0.5763: real time    0.5824
 BZINTS: Fermi energy: 22.203170; 28.000000 electrons
         Band energy: -54.686200;  BLOECHL correction: -0.174833
       DOS:  cpu time    0.0359: real time    0.0360
    --------------------------------------------
      LOOP:  cpu time    0.6340: real time    0.6403

 eigenvalue-minimisations  :  3384
 total energy-change (2. order) : 0.2677426E+03  (-0.2478715E+04)
 number of electron      28.0000000 magnetization      10.0000000
 augmentation part       28.0000000 magnetization      10.0000000

 Free energy of the ion-electron system (eV)
  ---------------------------------------------------
  alpha Z        PSCENC =       218.87048721
  Ewald energy   TEWEN  =     -3616.56080017
  -Hartree energ DENC   =     -1162.86386254
  -exchange      EXHF   =         0.00000000
  -V(xc)+E(xc)   XCENC  =       147.54621416
  PAW double counting   =      3997.93860218    -4177.34792201
  entropy T*S    EENTRO =         0.00000000
  eigenvalues    EBANDS =       -54.68619958
  atomic energy  EATOM  =      4914.84610504
  Solvation  Ediel_sol  =         0.00000000
  ---------------------------------------------------
  free energy    TOTEN  =       267.74262429 eV

  energy without entropy =      267.74262429  energy(sigma->0) =      267.74262429


--------------------------------------------------------------------------------------------------------




--------------------------------------- Iteration      1(   2)  ---------------------------------------


     EDDAV:  cpu time    0.5761: real time    0.5776
 BZINTS: Fermi energy: 12.224446; 28.000000 electrons
         Band energy:-330.716957;  BLOECHL correction: -0.073117
       DOS:  cpu time    0.0357: real time    0.0358
    --------------------------------------------
      LOOP:  cpu time    0.6118: real time    0.6134

 eigenvalue-minimisations  :  3432
 total energy-change (2. order) :-0.2760308E+03  (-0.2652460E+03)
 number of electron      28.0000000 magnetization      10.0000000
 augmentation part       28.0000000 magnetization      10.0000000

 Free energy of the ion-electron system (eV)
  ---------------------------------------------------
  alpha Z        PSCENC =       218.87048721
  Ewald energy   TEWEN  =     -3616.56080017
  -Hartree energ DENC   =     -1162.86386254
  -exchange      EXHF   =         0.00000000
  -V(xc)+E(xc)   XCENC  =       147.54621416
  PAW double counting   =      3997.93860218    -4177.34792201
  entropy T*S    EENTRO =         0.00000000
  eigenvalues    EBANDS =      -330.71695711
  atomic energy  EATOM  =      4914.84610504
  Solvation  Ediel_sol  =         0.00000000
  ---------------------------------------------------
  free energy    TOTEN  =        -8.28813325 eV

  energy without entropy =       -8.28813325  energy(sigma->0) =       -8.28813325


--------------------------------------------------------------------------------------------------------




--------------------------------------- Iteration      1(   3)  ---------------------------------------


     EDDAV:  cpu time    0.5950: real time    0.5969
 BZINTS: Fermi energy: 12.037006; 28.000000 electrons
         Band energy:-338.631496;  BLOECHL correction: -0.071288
       DOS:  cpu time    0.0355: real time    0.0356
    --------------------------------------------
      LOOP:  cpu time    0.6305: real time    0.6325

 eigenvalue-minimisations  :  3552
 total energy-change (2. order) :-0.7914539E+01  (-0.7896690E+01)
 number of electron      28.0000000 magnetization      10.0000000
 augmentation part       28.0000000 magnetization      10.0000000

 Free energy of the ion-electron system (eV)
  ---------------------------------------------------
  alpha Z        PSCENC =       218.87048721
  Ewald energy   TEWEN  =     -3616.56080017
  -Hartree energ DENC   =     -1162.86386254
  -exchange      EXHF   =         0.00000000
  -V(xc)+E(xc)   XCENC  =       147.54621416
  PAW double counting   =      3997.93860218    -4177.34792201
  entropy T*S    EENTRO =         0.00000000
  eigenvalues    EBANDS =      -338.63149588
  atomic energy  EATOM  =      4914.84610504
  Solvation  Ediel_sol  =         0.00000000
  ---------------------------------------------------
  free energy    TOTEN  =       -16.20267201 eV

  energy without entropy =      -16.20267201  energy(sigma->0) =      -16.20267201


--------------------------------------------------------------------------------------------------------




--------------------------------------- Iteration      1(   4)  ---------------------------------------


     EDDAV:  cpu time    0.6597: real time    0.6617
 BZINTS: Fermi energy: 12.036484; 28.000000 electrons
         Band energy:-338.702172;  BLOECHL correction: -0.071274
       DOS:  cpu time    0.0355: real time    0.0356
    --------------------------------------------
      LOOP:  cpu time    0.6951: real time    0.6972

 eigenvalue-minimisations  :  4008
 total energy-change (2. order) :-0.7067621E-01  (-0.7068058E-01)
 number of electron      28.0000000 magnetization      10.0000000
 augmentation part       28.0000000 magnetization      10.0000000

 Free energy of the ion-electron system (eV)
  ---------------------------------------------------
  alpha Z        PSCENC =       218.87048721
  Ewald energy   TEWEN  =     -3616.56080017
  -Hartree energ DENC   =     -1162.86386254
  -exchange      EXHF   =         0.00000000
  -V(xc)+E(xc)   XCENC  =       147.54621416
  PAW double counting   =      3997.93860218    -4177.34792201
  entropy T*S    EENTRO =         0.00000000
  eigenvalues    EBANDS =      -338.70217209
  atomic energy  EATOM  =      4914.84610504
  Solvation  Ediel_sol  =         0.00000000
  ---------------------------------------------------
  free energy    TOTEN  =       -16.27334822 eV

  energy without entropy =      -16.27334822  energy(sigma->0) =      -16.27334822


--------------------------------------------------------------------------------------------------------




--------------------------------------- Iteration      1(   5)  ---------------------------------------


     EDDAV:  cpu time    0.5923: real time    0.5938
 BZINTS: Fermi energy: 12.036483; 28.000000 electrons
         Band energy:-338.703490;  BLOECHL correction: -0.071274
       DOS:  cpu time    0.0345: real time    0.0347
    CHARGE:  cpu time    0.0243: real time    0.0244
    MIXING:  cpu time    0.0006: real time    0.0007
    --------------------------------------------
      LOOP:  cpu time    0.6517: real time    0.6536

 eigenvalue-minimisations  :  3588
 total energy-change (2. order) :-0.1318188E-02  (-0.1318222E-02)
 number of electron      28.0000008 magnetization       4.3573972
 augmentation part       15.9045822 magnetization       2.8336187

 Broyden mixing:
  rms(total) = 0.24992E+01    rms(broyden)= 0.24992E+01
  rms(prec ) = 0.39514E+01
  weight for this iteration     100.00

 Free energy of the ion-electron system (eV)
  ---------------------------------------------------
  alpha Z        PSCENC =       218.87048721
  Ewald energy   TEWEN  =     -3616.56080017
  -Hartree energ DENC   =     -1162.86386254
  -exchange      EXHF   =         0.00000000
  -V(xc)+E(xc)   XCENC  =       147.54621416
  PAW double counting   =      3997.93860218    -4177.34792201
  entropy T*S    EENTRO =         0.00000000
  eigenvalues    EBANDS =      -338.70349028
  atomic energy  EATOM  =      4914.84610504
  Solvation  Ediel_sol  =         0.00000000
  ---------------------------------------------------
  free energy    TOTEN  =       -16.27466641 eV

  energy without entropy =      -16.27466641  energy(sigma->0) =      -16.27466641


--------------------------------------------------------------------------------------------------------




--------------------------------------- Iteration      1(   6)  ---------------------------------------


    POTLOK:  cpu time    0.0119: real time    0.0120
    SETDIJ:  cpu time    0.0055: real time    0.0055
     EDDAV:  cpu time    0.5732: real time    0.5745
 BZINTS: Fermi energy:  9.265703; 28.000000 electrons
         Band energy:-409.591291;  BLOECHL correction: -0.036206
       DOS:  cpu time    0.0352: real time    0.0353
    CHARGE:  cpu time    0.0238: real time    0.0239
    MIXING:  cpu time    0.0006: real time    0.0006
    --------------------------------------------
      LOOP:  cpu time    0.6502: real time    0.6519

 eigenvalue-minimisations  :  3420
 total energy-change (2. order) :-0.1843837E+00  (-0.7492135E+00)
 number of electron      28.0000008 magnetization       4.5320041
 augmentation part       17.0680923 magnetization       3.5496667

 Broyden mixing:
  rms(total) = 0.69133E+00    rms(broyden)= 0.69133E+00
  rms(prec ) = 0.86651E+00
  weight for this iteration     100.00

 eigenvalues of (default mixing * dielectric matrix)
  average eigenvalue GAMMA=   0.8369
  0.8369

 Free energy of the ion-electron system (eV)
  ---------------------------------------------------
  alpha Z        PSCENC =       218.87048721
  Ewald energy   TEWEN  =     -3616.56080017
  -Hartree energ DENC   =     -1089.08787576
  -exchange      EXHF   =         0.00000000
  -V(xc)+E(xc)   XCENC  =       140.63805489
  PAW double counting   =      4113.88503641    -4289.45876718
  entropy T*S    EENTRO =         0.00000000
  eigenvalues    EBANDS =      -409.59129053
  atomic energy  EATOM  =      4914.84610504
  Solvation  Ediel_sol  =         0.00000000
  ---------------------------------------------------
  free energy    TOTEN  =       -16.45905008 eV

  energy without entropy =      -16.45905008  energy(sigma->0) =      -16.45905008


--------------------------------------------------------------------------------------------------------




--------------------------------------- Iteration      1(   7)  ---------------------------------------


    POTLOK:  cpu time    0.0119: real time    0.0122
    SETDIJ:  cpu time    0.0055: real time    0.0055
     EDDAV:  cpu time    0.5654: real time    0.5669
 BZINTS: Fermi energy:  9.762239; 28.000000 electrons
         Band energy:-395.206064;  BLOECHL correction: -0.033725
       DOS:  cpu time    0.0352: real time    0.0353
    CHARGE:  cpu time    0.0236: real time    0.0236
    MIXING:  cpu time    0.0004: real time    0.0004
    --------------------------------------------
      LOOP:  cpu time    0.6420: real time    0.6440

 eigenvalue-minimisations  :  3408
 total energy-change (2. order) :-0.5447369E-01  (-0.6150836E-01)
 number of electron      28.0000008 magnetization       4.4437283
 augmentation part       16.7744509 magnetization       3.5266761

 Broyden mixing:
  rms(total) = 0.43084E+00    rms(broyden)= 0.43084E+00
  rms(prec ) = 0.52596E+00
  weight for this iteration     100.00

 eigenvalues of (default mixing * dielectric matrix)
  average eigenvalue GAMMA=   0.7673
  0.9881  0.5466

 Free energy of the ion-electron system (eV)
  ---------------------------------------------------
  alpha Z        PSCENC =       218.87048721
  Ewald energy   TEWEN  =     -3616.56080017
  -Hartree energ DENC   =     -1099.07948958
  -exchange      EXHF   =         0.00000000
  -V(xc)+E(xc)   XCENC  =       141.33081588
  PAW double counting   =      4219.86646575    -4400.58104352
  entropy T*S    EENTRO =         0.00000000
  eigenvalues    EBANDS =      -395.20606439
  atomic energy  EATOM  =      4914.84610504
  Solvation  Ediel_sol  =         0.00000000
  ---------------------------------------------------
  free energy    TOTEN  =       -16.51352377 eV

  energy without entropy =      -16.51352377  energy(sigma->0) =      -16.51352377


--------------------------------------------------------------------------------------------------------




--------------------------------------- Iteration      1(   8)  ---------------------------------------


    POTLOK:  cpu time    0.0118: real time    0.0119
    SETDIJ:  cpu time    0.0054: real time    0.0055
     EDDAV:  cpu time    0.6179: real time    0.6194
 BZINTS: Fermi energy:  9.688657; 28.000000 electrons
         Band energy:-397.471089;  BLOECHL correction: -0.033981
       DOS:  cpu time    0.0352: real time    0.0354
    CHARGE:  cpu time    0.0233: real time    0.0234
    MIXING:  cpu time    0.0004: real time    0.0004
    --------------------------------------------
      LOOP:  cpu time    0.6940: real time    0.6959

 eigenvalue-minimisations  :  3744
 total energy-change (2. order) :-0.9689680E-02  (-0.1517682E-02)
 number of electron      28.0000008 magnetization       4.3699041
 augmentation part       16.8105723 magnetization       3.4531108

 Broyden mixing:
  rms(total) = 0.13688E+00    rms(broyden)= 0.13688E+00
  rms(prec ) = 0.21420E+00
  weight for this iteration     100.00

 eigenvalues of (default mixing * dielectric matrix)
  average eigenvalue GAMMA=   1.0474
  1.6984  0.8570  0.5868

 Free energy of the ion-electron system (eV)
  ---------------------------------------------------
  alpha Z        PSCENC =       218.87048721
  Ewald energy   TEWEN  =     -3616.56080017
  -Hartree energ DENC   =     -1095.16358952
  -exchange      EXHF   =         0.00000000
  -V(xc)+E(xc)   XCENC  =       141.10677162
  PAW double counting   =      4267.87708297    -4450.02818179
  entropy T*S    EENTRO =         0.00000000
  eigenvalues    EBANDS =      -397.47108880
  atomic energy  EATOM  =      4914.84610504
  Solvation  Ediel_sol  =         0.00000000
  ---------------------------------------------------
  free energy    TOTEN  =       -16.52321345 eV

  energy without entropy =      -16.52321345  energy(sigma->0) =      -16.52321345


--------------------------------------------------------------------------------------------------------




--------------------------------------- Iteration      1(   9)  ---------------------------------------


    POTLOK:  cpu time    0.0117: real time    0.0119
    SETDIJ:  cpu time    0.0055: real time    0.0055
     EDDAV:  cpu time    0.5988: real time    0.6002
 BZINTS: Fermi energy:  9.610494; 28.000000 electrons
         Band energy:-399.761932;  BLOECHL correction: -0.034534
       DOS:  cpu time    0.0342: real time    0.0343
    CHARGE:  cpu time    0.0243: real time    0.0244
    MIXING:  cpu time    0.0005: real time    0.0005
    --------------------------------------------
      LOOP:  cpu time    0.6750: real time    0.6767

 eigenvalue-minimisations  :  3624
 total energy-change (2. order) : 0.8279640E-02  (-0.5290030E-03)
 number of electron      28.0000008 magnetization       4.4017683
 augmentation part       16.8467798 magnetization       3.4830743

 Broyden mixing:
  rms(total) = 0.33706E-01    rms(broyden)= 0.33706E-01
  rms(prec ) = 0.45975E-01
  weight for this iteration     100.00

 eigenvalues of (default mixing * dielectric matrix)
  average eigenvalue GAMMA=   1.1855
  2.3392  1.0621  0.6995  0.6412

 Free energy of the ion-electron system (eV)
  ---------------------------------------------------
  alpha Z        PSCENC =       218.87048721
  Ewald energy   TEWEN  =     -3616.56080017
  -Hartree energ DENC   =     -1090.25389300
  -exchange      EXHF   =         0.00000000
  -V(xc)+E(xc)   XCENC  =       140.86339092
  PAW double counting   =      4344.35787062    -4528.87616214
  entropy T*S    EENTRO =         0.00000000
  eigenvalues    EBANDS =      -399.76193228
  atomic energy  EATOM  =      4914.84610504
  Solvation  Ediel_sol  =         0.00000000
  ---------------------------------------------------
  free energy    TOTEN  =       -16.51493381 eV

  energy without entropy =      -16.51493381  energy(sigma->0) =      -16.51493381


--------------------------------------------------------------------------------------------------------




--------------------------------------- Iteration      1(  10)  ---------------------------------------


    POTLOK:  cpu time    0.0117: real time    0.0119
    SETDIJ:  cpu time    0.0055: real time    0.0055
     EDDAV:  cpu time    0.5744: real time    0.5760
 BZINTS: Fermi energy:  9.624957; 28.000000 electrons
         Band energy:-399.219781;  BLOECHL correction: -0.034692
       DOS:  cpu time    0.0334: real time    0.0335
    CHARGE:  cpu time    0.0243: real time    0.0244
    MIXING:  cpu time    0.0006: real time    0.0006
    --------------------------------------------
      LOOP:  cpu time    0.6500: real time    0.6518

 eigenvalue-minimisations  :  3456
 total energy-change (2. order) : 0.1990692E-03  (-0.2243667E-03)
 number of electron      28.0000008 magnetization       4.4065381
 augmentation part       16.8347647 magnetization       3.4850832

 Broyden mixing:
  rms(total) = 0.44131E-02    rms(broyden)= 0.44131E-02
  rms(prec ) = 0.54446E-02
  weight for this iteration     100.00

 eigenvalues of (default mixing * dielectric matrix)
  average eigenvalue GAMMA=   1.1291
  2.4317  1.0998  0.7830  0.6970  0.6339

 Free energy of the ion-electron system (eV)
  ---------------------------------------------------
  alpha Z        PSCENC =       218.87048721
  Ewald energy   TEWEN  =     -3616.56080017
  -Hartree energ DENC   =     -1089.87010258
  -exchange      EXHF   =         0.00000000
  -V(xc)+E(xc)   XCENC  =       140.87079317
  PAW double counting   =      4373.15094189    -4558.60237787
  entropy T*S    EENTRO =         0.00000000
  eigenvalues    EBANDS =      -399.21978142
  atomic energy  EATOM  =      4914.84610504
  Solvation  Ediel_sol  =         0.00000000
  ---------------------------------------------------
  free energy    TOTEN  =       -16.51473474 eV

  energy without entropy =      -16.51473474  energy(sigma->0) =      -16.51473474


--------------------------------------------------------------------------------------------------------




--------------------------------------- Iteration      1(  11)  ---------------------------------------


    POTLOK:  cpu time    0.0125: real time    0.0128
    SETDIJ:  cpu time    0.0056: real time    0.0056
     EDDAV:  cpu time    0.6086: real time    0.6101
 BZINTS: Fermi energy:  9.623389; 28.000000 electrons
         Band energy:-399.252210;  BLOECHL correction: -0.034709
       DOS:  cpu time    0.0342: real time    0.0344
    CHARGE:  cpu time    0.0236: real time    0.0237
    MIXING:  cpu time    0.0005: real time    0.0005
    --------------------------------------------
      LOOP:  cpu time    0.6849: real time    0.6870

 eigenvalue-minimisations  :  3660
 total energy-change (2. order) :-0.5990754E-04  (-0.5006966E-05)
 number of electron      28.0000008 magnetization       4.4059387
 augmentation part       16.8353220 magnetization       3.4847462

 Broyden mixing:
  rms(total) = 0.24167E-02    rms(broyden)= 0.24167E-02
  rms(prec ) = 0.32609E-02
  weight for this iteration     100.00

 eigenvalues of (default mixing * dielectric matrix)
  average eigenvalue GAMMA=   1.2958
  2.3067  2.3067  1.0748  0.6332  0.7556  0.6976

 Free energy of the ion-electron system (eV)
  ---------------------------------------------------
  alpha Z        PSCENC =       218.87048721
  Ewald energy   TEWEN  =     -3616.56080017
  -Hartree energ DENC   =     -1089.86261972
  -exchange      EXHF   =         0.00000000
  -V(xc)+E(xc)   XCENC  =       140.87311418
  PAW double counting   =      4374.35570516    -4559.78457674
  entropy T*S    EENTRO =         0.00000000
  eigenvalues    EBANDS =      -399.25220961
  atomic energy  EATOM  =      4914.84610504
  Solvation  Ediel_sol  =         0.00000000
  ---------------------------------------------------
  free energy    TOTEN  =       -16.51479465 eV

  energy without entropy =      -16.51479465  energy(sigma->0) =      -16.51479465


--------------------------------------------------------------------------------------------------------




--------------------------------------- Iteration      1(  12)  ---------------------------------------


    POTLOK:  cpu time    0.0118: real time    0.0120
    SETDIJ:  cpu time    0.0055: real time    0.0055
     EDDAV:  cpu time    0.6353: real time    0.6368
 BZINTS: Fermi energy:  9.621858; 28.000000 electrons
         Band energy:-399.286627;  BLOECHL correction: -0.034722
       DOS:  cpu time    0.0343: real time    0.0343
    CHARGE:  cpu time    0.0237: real time    0.0237
    MIXING:  cpu time    0.0006: real time    0.0006
    --------------------------------------------
      LOOP:  cpu time    0.7111: real time    0.7129

 eigenvalue-minimisations  :  3852
 total energy-change (2. order) :-0.8186813E-05  (-0.5086765E-06)
 number of electron      28.0000008 magnetization       4.4056735
 augmentation part       16.8360349 magnetization       3.4847494

 Broyden mixing:
  rms(total) = 0.95708E-03    rms(broyden)= 0.95708E-03
  rms(prec ) = 0.13583E-02
  weight for this iteration     100.00

 eigenvalues of (default mixing * dielectric matrix)
  average eigenvalue GAMMA=   1.2319
  2.3915  2.3915  1.0835  0.7896  0.7155  0.6258  0.6258

 Free energy of the ion-electron system (eV)
  ---------------------------------------------------
  alpha Z        PSCENC =       218.87048721
  Ewald energy   TEWEN  =     -3616.56080017
  -Hartree energ DENC   =     -1089.91444045
  -exchange      EXHF   =         0.00000000
  -V(xc)+E(xc)   XCENC  =       140.87581116
  PAW double counting   =      4375.41346742    -4560.75880626
  entropy T*S    EENTRO =         0.00000000
  eigenvalues    EBANDS =      -399.28662677
  atomic energy  EATOM  =      4914.84610504
  Solvation  Ediel_sol  =         0.00000000
  ---------------------------------------------------
  free energy    TOTEN  =       -16.51480283 eV

  energy without entropy =      -16.51480283  energy(sigma->0) =      -16.51480283


--------------------------------------------------------------------------------------------------------




--------------------------------------- Iteration      1(  13)  ---------------------------------------


    POTLOK:  cpu time    0.0118: real time    0.0119
    SETDIJ:  cpu time    0.0055: real time    0.0055
     EDDAV:  cpu time    0.5765: real time    0.5780
 BZINTS: Fermi energy:  9.622459; 28.000000 electrons
         Band energy:-399.274201;  BLOECHL correction: -0.034714
       DOS:  cpu time    0.0296: real time    0.0296
    CHARGE:  cpu time    0.0238: real time    0.0238
    MIXING:  cpu time    0.0006: real time    0.0006
    --------------------------------------------
      LOOP:  cpu time    0.6477: real time    0.6495

 eigenvalue-minimisations  :  3492
 total energy-change (2. order) : 0.6725199E-05  (-0.1279463E-06)
 number of electron      28.0000008 magnetization       4.4054727
 augmentation part       16.8357325 magnetization       3.4844395

 Broyden mixing:
  rms(total) = 0.25331E-03    rms(broyden)= 0.25331E-03
  rms(prec ) = 0.34698E-03
  weight for this iteration     100.00

 eigenvalues of (default mixing * dielectric matrix)
  average eigenvalue GAMMA=   1.2901
  2.5190  2.4433  1.4846  1.0644  0.8089  0.6260  0.6873  0.6873

 Free energy of the ion-electron system (eV)
  ---------------------------------------------------
  alpha Z        PSCENC =       218.87048721
  Ewald energy   TEWEN  =     -3616.56080017
  -Hartree energ DENC   =     -1089.92137053
  -exchange      EXHF   =         0.00000000
  -V(xc)+E(xc)   XCENC  =       140.87570958
  PAW double counting   =      4375.53940325    -4560.89012998
  entropy T*S    EENTRO =         0.00000000
  eigenvalues    EBANDS =      -399.27420051
  atomic energy  EATOM  =      4914.84610504
  Solvation  Ediel_sol  =         0.00000000
  ---------------------------------------------------
  free energy    TOTEN  =       -16.51479611 eV

  energy without entropy =      -16.51479611  energy(sigma->0) =      -16.51479611


--------------------------------------------------------------------------------------------------------




--------------------------------------- Iteration      1(  14)  ---------------------------------------


    POTLOK:  cpu time    0.0118: real time    0.0120
    SETDIJ:  cpu time    0.0055: real time    0.0055
     EDDAV:  cpu time    0.4937: real time    0.4949
 BZINTS: Fermi energy:  9.622706; 28.000000 electrons
         Band energy:-399.269198;  BLOECHL correction: -0.034712
       DOS:  cpu time    0.0351: real time    0.0352
    CHARGE:  cpu time    0.0235: real time    0.0236
    MIXING:  cpu time    0.0006: real time    0.0006
    --------------------------------------------
      LOOP:  cpu time    0.5703: real time    0.5717

 eigenvalue-minimisations  :  2712
 total energy-change (2. order) : 0.1592001E-05  (-0.1596337E-07)
 number of electron      28.0000008 magnetization       4.4054903
 augmentation part       16.8356149 magnetization       3.4844222

 Broyden mixing:
  rms(total) = 0.65602E-04    rms(broyden)= 0.65601E-04
  rms(prec ) = 0.85815E-04
  weight for this iteration     100.00

 eigenvalues of (default mixing * dielectric matrix)
  average eigenvalue GAMMA=   1.2120
  2.6079  2.4644  1.2914  1.0507  0.8270  0.6324  0.6635  0.6853  0.6853

 Free energy of the ion-electron system (eV)
  ---------------------------------------------------
  alpha Z        PSCENC =       218.87048721
  Ewald energy   TEWEN  =     -3616.56080017
  -Hartree energ DENC   =     -1089.92383716
  -exchange      EXHF   =         0.00000000
  -V(xc)+E(xc)   XCENC  =       140.87554113
  PAW double counting   =      4375.54059624    -4560.89368911
  entropy T*S    EENTRO =         0.00000000
  eigenvalues    EBANDS =      -399.26919770
  atomic energy  EATOM  =      4914.84610504
  Solvation  Ediel_sol  =         0.00000000
  ---------------------------------------------------
  free energy    TOTEN  =       -16.51479452 eV

  energy without entropy =      -16.51479452  energy(sigma->0) =      -16.51479452


--------------------------------------------------------------------------------------------------------




--------------------------------------- Iteration      1(  15)  ---------------------------------------


    POTLOK:  cpu time    0.0117: real time    0.0120
    SETDIJ:  cpu time    0.0055: real time    0.0055
     EDDAV:  cpu time    0.3727: real time    0.3736
 BZINTS: Fermi energy:  9.622672; 28.000000 electrons
         Band energy:-399.270110;  BLOECHL correction: -0.034712
       DOS:  cpu time    0.0351: real time    0.0352
    --------------------------------------------
      LOOP:  cpu time    0.4250: real time    0.4263

 eigenvalue-minimisations  :  1728
 total energy-change (2. order) :-0.4569301E-08  (-0.1138925E-08)
 number of electron      28.0000008 magnetization       4.4054903
 augmentation part       16.8356149 magnetization       3.4844222

 Free energy of the ion-electron system (eV)
  ---------------------------------------------------
  alpha Z        PSCENC =       218.87048721
  Ewald energy   TEWEN  =     -3616.56080017
  -Hartree energ DENC   =     -1089.92345744
  -exchange      EXHF   =         0.00000000
  -V(xc)+E(xc)   XCENC  =       140.87557377
  PAW double counting   =      4375.53584598    -4560.88843918
  entropy T*S    EENTRO =         0.00000000
  eigenvalues    EBANDS =      -399.27010974
  atomic energy  EATOM  =      4914.84610504
  Solvation  Ediel_sol  =         0.00000000
  ---------------------------------------------------
  free energy    TOTEN  =       -16.51479452 eV

  energy without entropy =      -16.51479452  energy(sigma->0) =      -16.51479452


--------------------------------------------------------------------------------------------------------




 average (electrostatic) potential at core
  the test charge radii are     0.9500
  (the norm of the test charge is              1.0000)
       1 -73.6647       2 -73.6647
 
 
 
 E-fermi :   9.6227     XC(G=0): -13.6241     alpha+bet :-17.4163


 spin component 1

 k-point     1 :       0.0500    0.0500    0.0500
  band No.  band energies     occupation 
      1     -44.5604      1.00000
      2     -44.5604      1.00000
      3     -44.5461      1.00000
      4     -44.2894      1.00000
      5     -44.2746      1.00000
      6     -44.2746      1.00000
      7       1.3982      1.00000
      8       4.9383      1.00000
      9       4.9383      1.00000
     10       7.3048      1.00000
     11       7.3048      1.00000
     12       7.4308      1.00000
     13       8.5803      1.00000
     14       8.5803      1.00000
     15       9.4948      1.00000
     16       9.6871      0.60083
     17       9.6871      0.00979
     18      19.1997      0.00000
     19      19.1997      0.00000
     20      19.4417      0.00000
     21      25.8103      0.00000
     22      25.8103      0.00000
     23      30.6973      0.00000
     24      33.3488      0.00000

 k-point     2 :       0.1500    0.0500    0.0500
  band No.  band energies     occupation 
      1     -44.5664      1.00000
      2     -44.5456      1.00000
      3     -44.5240      1.00000
      4     -44.3211      1.00000
      5     -44.2878      1.00000
      6     -44.2801      1.00000
      7       1.8018      1.00000
      8       5.1061      1.00000
      9       5.1084      1.00000
     10       7.2463      1.00000
     11       7.2945      1.00000
     12       7.5991      1.00000
     13       8.4142      1.00000
     14       8.6553      1.00000
     15       9.1041      1.00000
     16       9.3725      1.02104
     17       9.6657      0.13616
     18      17.0989      0.00000
     19      19.9187      0.00000
     20      20.0958      0.00000
     21      25.9619      0.00000
     22      27.1439      0.00000
     23      31.5526      0.00000
     24      32.1500      0.00000

 k-point     3 :       0.2500    0.0500    0.0500
  band No.  band energies     occupation 
      1     -44.5636      1.00000
      2     -44.5178      1.00000
      3     -44.4933      1.00000
      4     -44.3689      1.00000
      5     -44.3132      1.00000
      6     -44.3002      1.00000
      7       2.5673      1.00000
      8       5.3675      1.00000
      9       5.4274      1.00000
     10       7.2423      1.00000
     11       7.2873      1.00000
     12       7.8416      1.00000
     13       8.1078      1.00000
     14       8.6066      1.00000
     15       8.7946      1.00000
     16       8.8889      1.00000
     17       9.4858      1.03924
     18      14.5757      0.00000
     19      21.1878      0.00000
     20      21.3586      0.00000
     21      26.2945      0.00000
     22      27.9718      0.00000
     23      29.6288      0.00000
     24      31.2961      0.00000

 k-point     4 :       0.3500    0.0500    0.0500
  band No.  band energies     occupation 
      1     -44.5491      1.00000
      2     -44.4800      1.00000
      3     -44.4553      1.00000
      4     -44.4241      1.00000
      5     -44.3486      1.00000
      6     -44.3315      1.00000
      7       3.5894      1.00000
      8       5.5402      1.00000
      9       5.8725      1.00000
     10       7.2457      1.00000
     11       7.3213      1.00000
     12       7.7679      1.00000
     13       8.1304      1.00000
     14       8.1502      1.00000
     15       8.3929      1.00000
     16       9.0192      1.00000
     17       9.2003      1.03866
     18      12.2833      0.00000
     19      22.7946      0.00000
     20      23.0074      0.00000
     21      26.8755      0.00000
     22      27.8749      0.00000
     23      28.6105      0.00000
     24      29.1475      0.00000

 k-point     5 :       0.4500    0.0500    0.0500
  band No.  band energies     occupation 
      1     -44.5203      1.00000
      2     -44.4773      1.00000
      3     -44.4361      1.00000
      4     -44.4131      1.00000
      5     -44.3909      1.00000
      6     -44.3705      1.00000
      7       4.6412      1.00000
      8       5.3582      1.00000
      9       6.3946      1.00000
     10       6.9174      1.00000
     11       7.4991      1.00000
     12       7.7311      1.00000
     13       7.7625      1.00000
     14       7.9855      1.00000
     15       8.4990      1.00000
     16       8.8574      1.00000
     17       9.4832      0.98552
     18      10.5197      0.00000
     19      24.5325      0.00000
     20      24.9047      0.00000
     21      26.2268      0.00000
     22      26.9673      0.00000
     23      27.8212      0.00000
     24      29.2508      0.00000

 k-point     6 :       0.1500    0.1500    0.0500
  band No.  band energies     occupation 
      1     -44.5805      1.00000
      2     -44.5369      1.00000
      3     -44.4917      1.00000
      4     -44.3626      1.00000
      5     -44.2981      1.00000
      6     -44.2747      1.00000
      7       2.1897      1.00000
      8       5.2391      1.00000
      9       5.2979      1.00000
     10       7.0936      1.00000
     11       7.2374      1.00000
     12       7.8700      1.00000
     13       8.4385      1.00000
     14       8.6106      1.00000
     15       8.6246      1.00000
     16       9.1496      1.00691
     17       9.7347      0.03142
     18      17.1960      0.00000
     19      18.2811      0.00000
     20      20.6510      0.00000
     21      26.6283      0.00000
     22      28.5393      0.00000
     23      29.9220      0.00000
     24      31.9695      0.00000

 k-point     7 :       0.2500    0.1500    0.0500
  band No.  band energies     occupation 
      1     -44.5897      1.00000
      2     -44.5113      1.00000
      3     -44.4539      1.00000
      4     -44.4173      1.00000
      5     -44.3210      1.00000
      6     -44.2821      1.00000
      7       2.9160      1.00000
      8       5.4554      1.00000
      9       5.6206      1.00000
     10       6.9881      1.00000
     11       7.1824      1.00000
     12       8.1057      1.00000
     13       8.2001      1.00000
     14       8.2825      1.00000
     15       8.7216      1.00000
     16       8.7244      1.00000
     17       9.6885      0.28926
     18      14.9839      0.00000
     19      19.0121      0.00000
     20      21.7958      0.00000
     21      27.0200      0.00000
     22      27.7478      0.00000
     23      29.9240      0.00000
     24      30.6413      0.00000

 k-point     8 :       0.3500    0.1500    0.0500
  band No.  band energies     occupation 
      1     -44.5856      1.00000
      2     -44.4758      1.00000
      3     -44.4751      1.00000
      4     -44.4132      1.00000
      5     -44.3535      1.00000
      6     -44.3031      1.00000
      7       3.8582      1.00000
      8       5.5955      1.00000
      9       6.0116      1.00000
     10       6.9645      1.00000
     11       7.1189      1.00000
     12       7.6670      1.00000
     13       8.0931      1.00000
     14       8.3377      1.00000
     15       8.5643      1.00000
     16       8.9632      1.00000
     17       9.4968      0.92396
     18      12.6533      0.00000
     19      20.3762      0.00000
     20      23.3122      0.00000
     21      25.6605      0.00000
     22      27.5890      0.00000
     23      28.7792      0.00000
     24      30.9264      0.00000

 k-point     9 :       0.4500    0.1500    0.0500
  band No.  band energies     occupation 
      1     -44.5647      1.00000
      2     -44.5266      1.00000
      3     -44.4348      1.00000
      4     -44.3926      1.00000
      5     -44.3722      1.00000
      6     -44.3343      1.00000
      7       4.7818      1.00000
      8       5.4046      1.00000
      9       6.4367      1.00000
     10       6.8149      1.00000
     11       7.1497      1.00000
     12       7.3556      1.00000
     13       8.0549      1.00000
     14       8.1285      1.00000
     15       8.8893      1.00000
     16       9.2081      1.00000
     17       9.5412      0.77852
     18      10.7644      0.00000
     19      21.9649      0.00000
     20      23.7293      0.00000
     21      25.0474      0.00000
     22      26.8832      0.00000
     23      28.4946      0.00000
     24      29.8474      0.00000

 k-point    10 :       0.2500    0.2500    0.0500
  band No.  band energies     occupation 
      1     -44.6129      1.00000
      2     -44.4906      1.00000
      3     -44.4770      1.00000
      4     -44.4110      1.00000
      5     -44.3388      1.00000
      6     -44.2748      1.00000
      7       3.5389      1.00000
      8       5.5104      1.00000
      9       6.0141      1.00000
     10       6.7714      1.00000
     11       7.1537      1.00000
     12       7.5987      1.00000
     13       8.4262      1.00000
     14       8.4288      1.00000
     15       8.6230      1.00000
     16       8.6648      1.00000
     17       9.8079     -0.03391
     18      14.8631      0.00000
     19      17.4659      0.00000
     20      22.7549      0.00000
     21      25.3835      0.00000
     22      27.3663      0.00000
     23      30.0596      0.00000
     24      32.3851      0.00000

 k-point    11 :       0.3500    0.2500    0.0500
  band No.  band energies     occupation 
      1     -44.6221      1.00000
      2     -44.5352      1.00000
      3     -44.4618      1.00000
      4     -44.3694      1.00000
      5     -44.3642      1.00000
      6     -44.2820      1.00000
      7       4.2636      1.00000
      8       5.4678      1.00000
      9       6.4673      1.00000
     10       6.6639      1.00000
     11       7.1893      1.00000
     12       7.2436      1.00000
     13       8.2727      1.00000
     14       8.4046      1.00000
     15       8.8096      1.00000
     16       9.0698      1.02187
     17       9.7580      0.00399
     18      13.0483      0.00000
     19      18.1035      0.00000
     20      23.1679      0.00000
     21      24.0663      0.00000
     22      27.8481      0.00000
     23      28.7851      0.00000
     24      31.4420      0.00000

 k-point    12 :       0.4500    0.2500    0.0500
  band No.  band energies     occupation 
      1     -44.6124      1.00000
      2     -44.5825      1.00000
      3     -44.4287      1.00000
      4     -44.3950      1.00000
      5     -44.3322      1.00000
      6     -44.3021      1.00000
      7       4.8666      1.00000
      8       5.2597      1.00000
      9       6.6822      1.00000
     10       6.7708      1.00000
     11       7.0121      1.00000
     12       7.2242      1.00000
     13       8.3124      1.00000
     14       8.3953      1.00000
     15       9.1811      1.00000
     16       9.5469      0.95176
     17       9.7288      0.02978
     18      11.1094      0.00000
     19      19.4889      0.00000
     20      21.1932      0.00000
     21      25.5959      0.00000
     22      27.2069      0.00000
     23      28.6470      0.00000
     24      29.8692      0.00000

 k-point    13 :       0.3500    0.3500    0.0500
  band No.  band energies     occupation 
      1     -44.6452      1.00000
      2     -44.5897      1.00000
      3     -44.4425      1.00000
      4     -44.3797      1.00000
      5     -44.3311      1.00000
      6     -44.2749      1.00000
      7       4.6033      1.00000
      8       5.2501      1.00000
      9       6.4672      1.00000
     10       6.7900      1.00000
     11       7.0689      1.00000
     12       7.8005      1.00000
     13       8.3288      1.00000
     14       8.5819      1.00000
     15       8.7313      1.00000
     16       9.5046      0.96286
     17       9.8584     -0.00497
     18      12.6726      0.00000
     19      17.0754      0.00000
     20      20.9326      0.00000
     21      25.1103      0.00000
     22      28.2079      0.00000
     23      28.4080      0.00000
     24      30.7491      0.00000

 k-point    14 :       0.4500    0.3500    0.0500
  band No.  band energies     occupation 
      1     -44.6485      1.00000
      2     -44.6294      1.00000
      3     -44.4207      1.00000
      4     -44.3990      1.00000
      5     -44.3011      1.00000
      6     -44.2818      1.00000
      7       4.8277      1.00000
      8       5.0274      1.00000
      9       6.4158      1.00000
     10       6.5252      1.00000
     11       7.6336      1.00000
     12       8.0156      1.00000
     13       8.4770      1.00000
     14       8.6082      1.00000
     15       9.2344      1.00000
     16       9.7475      0.31703
     17      10.0491      0.00000
     18      11.2875      0.00000
     19      17.6523      0.00000
     20      19.0565      0.00000
     21      26.3162      0.00000
     22      27.4992      0.00000
     23      28.8185      0.00000
     24      29.7273      0.00000

 k-point    15 :       0.4500    0.4500    0.0500
  band No.  band energies     occupation 
      1     -44.6651      1.00000
      2     -44.6586      1.00000
      3     -44.4123      1.00000
      4     -44.4049      1.00000
      5     -44.2816      1.00000
      6     -44.2750      1.00000
      7       4.7955      1.00000
      8       4.8569      1.00000
      9       6.2865      1.00000
     10       6.3241      1.00000
     11       8.3605      1.00000
     12       8.5983      1.00000
     13       8.6193      1.00000
     14       8.7802      1.00000
     15       9.2764      1.00000
     16       9.7025      0.28329
     17      10.4352      0.00000
     18      10.9858      0.00000
     19      16.9430      0.00000
     20      17.5291      0.00000
     21      27.0345      0.00000
     22      27.4880      0.00000
     23      29.0850      0.00000
     24      29.4301      0.00000

 k-point    16 :       0.1500    0.1500    0.1500
  band No.  band energies     occupation 
      1     -44.5647      1.00000
      2     -44.5647      1.00000
      3     -44.4559      1.00000
      4     -44.4001      1.00000
      5     -44.2889      1.00000
      6     -44.2889      1.00000
      7       2.5669      1.00000
      8       5.4264      1.00000
      9       5.4264      1.00000
     10       7.0362      1.00000
     11       7.0362      1.00000
     12       8.0860      1.00000
     13       8.1861      1.00000
     14       8.5281      1.00000
     15       8.5281      1.00000
     16       9.4249      0.99979
     17       9.4249      1.11236
     18      17.8413      0.00000
     19      17.8413      0.00000
     20      19.2371      0.00000
     21      28.7875      0.00000
     22      28.7875      0.00000
     23      29.7386      0.00000
     24      29.7386      0.00000

 k-point    17 :       0.2500    0.1500    0.1500
  band No.  band energies     occupation 
      1     -44.5850      1.00000
      2     -44.5350      1.00000
      3     -44.4515      1.00000
      4     -44.4178      1.00000
      5     -44.3161      1.00000
      6     -44.2883      1.00000
      7       3.2657      1.00000
      8       5.6656      1.00000
      9       5.6998      1.00000
     10       6.9036      1.00000
     11       6.9349      1.00000
     12       7.5733      1.00000
     13       8.3823      1.00000
     14       8.5850      1.00000
     15       8.6826      1.00000
     16       8.9720      1.00000
     17       9.5063      0.95270
     18      15.4702      0.00000
     19      18.9552      0.00000
     20      19.8769      0.00000
     21      27.5257      0.00000
     22      28.5416      0.00000
     23      29.3031      0.00000
     24      30.5092      0.00000

 k-point    18 :       0.3500    0.1500    0.1500
  band No.  band energies     occupation 
      1     -44.5911      1.00000
      2     -44.5044      1.00000
      3     -44.4946      1.00000
      4     -44.3809      1.00000
      5     -44.3540      1.00000
      6     -44.2990      1.00000
      7       4.1488      1.00000
      8       5.8193      1.00000
      9       5.9788      1.00000
     10       6.7953      1.00000
     11       6.9294      1.00000
     12       7.2680      1.00000
     13       8.2261      1.00000
     14       8.5459      1.00000
     15       8.8082      1.00000
     16       9.1280      1.00000
     17       9.4067      0.92705
     18      13.1244      0.00000
     19      20.3549      0.00000
     20      21.0652      0.00000
     21      25.4925      0.00000
     22      26.4578      0.00000
     23      30.1154      0.00000
     24      31.4558      0.00000

 k-point    19 :       0.4500    0.1500    0.1500
  band No.  band energies     occupation 
      1     -44.5795      1.00000
      2     -44.5494      1.00000
      3     -44.4477      1.00000
      4     -44.3993      1.00000
      5     -44.3474      1.00000
      6     -44.3194      1.00000
      7       4.9804      1.00000
      8       5.5623      1.00000
[...]
     19      18.3222      0.00000
     20      20.7972      0.00000
     21      22.3836      0.00000
     22      24.8362      0.00000
     23      26.2510      0.00000
     24      30.1362      0.00000

 k-point    30 :       0.4500    0.3500    0.2500
  band No.  band energies     occupation 
      1     -42.0277      1.00000
      2     -42.0274      1.00000
      3     -41.8762      1.00000
      4     -41.8249      1.00000
      5     -41.7187      1.00000
      6     -41.7144      1.00000
      7       6.7329      1.00000
      8       7.0451      1.00000
      9       7.9675      1.00000
     10       7.9784      1.00000
     11       8.3646      1.00000
     12       8.4914      1.00000
     13      11.1842      0.00000
     14      11.2348      0.00000
     15      11.5151      0.00000
     16      11.5334      0.00000
     17      13.8173      0.00000
     18      14.8898      0.00000
     19      19.1262      0.00000
     20      20.5768      0.00000
     21      21.9130      0.00000
     22      23.4382      0.00000
     23      26.7662      0.00000
     24      28.2365      0.00000

 k-point    31 :       0.4500    0.4500    0.2500
  band No.  band energies     occupation 
      1     -42.0355      1.00000
      2     -42.0349      1.00000
      3     -41.8568      1.00000
      4     -41.8360      1.00000
      5     -41.7251      1.00000
      6     -41.7213      1.00000
      7       6.8530      1.00000
      8       6.9335      1.00000
      9       7.8847      1.00000
     10       7.8996      1.00000
     11       8.6614      1.00000
     12       8.7305      1.00000
     13      11.3010      0.00000
     14      11.3257      0.00000
     15      11.5266      0.00000
     16      11.5392      0.00000
     17      14.4941      0.00000
     18      15.0169      0.00000
     19      18.3897      0.00000
     20      19.0494      0.00000
     21      23.0062      0.00000
     22      24.1212      0.00000
     23      25.2334      0.00000
     24      26.3294      0.00000

 k-point    32 :       0.3500    0.3500    0.3500
  band No.  band energies     occupation 
      1     -42.0117      1.00000
      2     -41.9614      1.00000
      3     -41.9614      1.00000
      4     -41.7728      1.00000
      5     -41.7728      1.00000
      6     -41.7226      1.00000
      7       6.9265      1.00000
      8       7.5004      1.00000
      9       7.9277      1.00000
     10       7.9277      1.00000
     11       8.0743      1.00000
     12       8.0743      1.00000
     13      11.3765      0.00000
     14      11.3765      0.00000
     15      11.4154      0.00000
     16      11.4154      0.00000
     17      13.8656      0.00000
     18      17.4974      0.00000
     19      17.4974      0.00000
     20      19.8866      0.00000
     21      22.8235      0.00000
     22      22.8235      0.00000
     23      24.1464      0.00000
     24      28.0399      0.00000

 k-point    33 :       0.4500    0.3500    0.3500
  band No.  band energies     occupation 
      1     -42.0063      1.00000
      2     -41.9905      1.00000
      3     -41.8986      1.00000
      4     -41.8337      1.00000
      5     -41.7565      1.00000
      6     -41.7377      1.00000
      7       7.2800      1.00000
      8       7.3822      1.00000
      9       7.8723      1.00000
     10       7.9207      1.00000
     11       8.0468      1.00000
     12       8.2172      1.00000
     13      11.3598      0.00000
     14      11.3851      0.00000
     15      11.5029      0.00000
     16      11.5142      0.00000
     17      14.8064      0.00000
     18      16.0278      0.00000
     19      19.1308      0.00000
     20      20.4299      0.00000
     21      20.9115      0.00000
     22      21.6695      0.00000
     23      24.5511      0.00000
     24      26.0869      0.00000

 k-point    34 :       0.4500    0.4500    0.3500
  band No.  band energies     occupation 
      1     -41.9891      1.00000
      2     -41.9780      1.00000
      3     -41.8849      1.00000
      4     -41.8487      1.00000
      5     -41.7791      1.00000
      6     -41.7644      1.00000
      7       7.4284      1.00000
      8       7.4421      1.00000
      9       7.8025      1.00000
     10       7.8455      1.00000
     11       8.1731      1.00000
     12       8.2614      1.00000
     13      11.4438      0.00000
     14      11.4546      0.00000
     15      11.5335      0.00000
     16      11.5378      0.00000
     17      15.8061      0.00000
     18      16.5886      0.00000
     19      18.5409      0.00000
     20      19.5007      0.00000
     21      21.0126      0.00000
     22      22.1184      0.00000
     23      22.9696      0.00000
     24      24.1595      0.00000

 k-point    35 :       0.4500    0.4500    0.4500
  band No.  band energies     occupation 
      1     -41.9443      1.00000
      2     -41.9119      1.00000
      3     -41.9119      1.00000
      4     -41.8433      1.00000
      5     -41.8433      1.00000
      6     -41.8108      1.00000
      7       7.6626      1.00000
      8       7.8092      1.00000
      9       7.8092      1.00000
     10       7.9082      1.00000
     11       7.9534      1.00000
     12       7.9534      1.00000
     13      11.5394      0.00000
     14      11.5394      0.00000
     15      11.5424      0.00000
     16      11.5424      0.00000
     17      17.1205      0.00000
     18      18.3147      0.00000
     19      18.3147      0.00000
     20      20.0020      0.00000
     21      20.1675      0.00000
     22      20.1675      0.00000
     23      21.5184      0.00000
     24      22.3099      0.00000


--------------------------------------------------------------------------------------------------------


 soft charge-density along one line, spin component           1
         0         1         2         3         4         5         6         7         8         9
 total charge-density along one line
 
 soft charge-density along one line, spin component           2
         0         1         2         3         4         5         6         7         8         9
 total charge-density along one line
 
 pseudopotential strength for first ion, spin component:           1
-44.857   0.000  -0.000   7.570  -0.000   0.000  -0.000  -0.000
  0.000 -44.857   0.000  -0.000   7.570  -0.000   0.000  -0.000
 -0.000   0.000 -44.857   0.000  -0.000   7.570  -0.000   0.000
  7.570  -0.000   0.000   5.638  -0.000   0.000   0.000   0.000
 -0.000   7.570  -0.000  -0.000   5.638  -0.000  -0.000   0.000
  0.000  -0.000   7.570   0.000  -0.000   5.638   0.000  -0.000
 -0.000   0.000  -0.000   0.000  -0.000   0.000  -1.981   0.000
 -0.000  -0.000   0.000   0.000   0.000  -0.000   0.000  -1.981
  0.000  -0.000   0.000  -0.000   0.000  -0.000   0.000   0.000
  0.000  -0.000  -0.000  -0.000   0.000   0.000   0.000  -0.000
  0.000  -0.000   0.000  -0.000   0.000   0.000   0.000  -0.000
 -0.000   0.000  -0.000   0.000  -0.000   0.000  -2.495   0.000
 -0.000  -0.000   0.000   0.000   0.000  -0.000   0.000  -2.495
  0.000  -0.000   0.000  -0.000   0.000  -0.000  -0.000   0.000
  0.000  -0.000  -0.000  -0.000   0.000   0.000   0.000  -0.000
  0.000  -0.000  -0.000  -0.000   0.000   0.000   0.000  -0.000
  0.000   0.000   0.000   0.000   0.000   0.000   0.000  -0.000
  0.000   0.000   0.000   0.000   0.000   0.000   0.000  -0.000
 pseudopotential strength for first ion, spin component:           2
-42.886  -0.000   0.000   6.737   0.000  -0.000  -0.000  -0.000
 -0.000 -42.886   0.000   0.000   6.737  -0.000   0.000  -0.000
  0.000   0.000 -42.886  -0.000  -0.000   6.737  -0.000   0.000
  6.737   0.000  -0.000   5.866   0.000  -0.000   0.000   0.000
  0.000   6.737  -0.000   0.000   5.866  -0.000  -0.000   0.000
 -0.000  -0.000   6.737  -0.000  -0.000   5.866   0.000  -0.000
 -0.000   0.000  -0.000   0.000  -0.000   0.000  -0.455   0.000
 -0.000  -0.000   0.000   0.000   0.000  -0.000   0.000  -0.455
  0.000  -0.000   0.000  -0.000   0.000  -0.000  -0.000  -0.000
  0.000  -0.000  -0.000  -0.000   0.000   0.000  -0.000   0.000
  0.000  -0.000   0.000  -0.000   0.000   0.000   0.000   0.000
 -0.000   0.000  -0.000   0.000  -0.000   0.000  -0.995   0.000
 -0.000  -0.000   0.000   0.000   0.000  -0.000   0.000  -0.995
  0.000  -0.000   0.000  -0.000   0.000  -0.000  -0.000  -0.000
  0.000  -0.000  -0.000  -0.000   0.000   0.000  -0.000   0.000
  0.000  -0.000  -0.000  -0.000   0.000   0.000   0.000   0.000
  0.000   0.000   0.000   0.000   0.000   0.000  -0.000   0.000
  0.000   0.000   0.000   0.000   0.000   0.000  -0.000   0.000
 total augmentation occupancy for first ion, spin component:           1
  1.992   0.000   0.000  -0.026   0.000  -0.000   0.000   0.000   0.000   0.000   0.000   0.000   0.000   0.000   0.000   0.000
  0.000   1.992   0.000  -0.000  -0.026  -0.000   0.000   0.000   0.000   0.000   0.000   0.000   0.000   0.000   0.000   0.000
  0.000   0.000   1.992   0.000   0.000  -0.026   0.000   0.000   0.000   0.000   0.000   0.000   0.000   0.000   0.000   0.000
 -0.026   0.000  -0.000   0.201   0.000   0.000  -0.000  -0.000   0.000   0.000   0.000  -0.000  -0.000  -0.000   0.000   0.000
 -0.000  -0.026  -0.000   0.000   0.201   0.000   0.000   0.000   0.000  -0.000  -0.000   0.000  -0.000   0.000  -0.000   0.000
 -0.000   0.000  -0.026   0.000   0.000   0.201   0.000   0.000   0.000  -0.000   0.000  -0.000  -0.000   0.000  -0.000   0.000
  0.000  -0.000   0.000   0.000   0.000  -0.000   2.169  -0.000  -0.000   0.000   0.000  -1.222  -0.000   0.000  -0.000  -0.000
  0.000   0.000  -0.000   0.000   0.000   0.000   0.000   2.169   0.000   0.000  -0.000   0.000  -1.222  -0.000   0.000   0.000
  0.000   0.000  -0.000  -0.000   0.000   0.000   0.000  -0.000   3.407   0.000   0.000   0.000   0.000  -2.184  -0.000   0.000
 -0.000   0.000   0.000   0.000  -0.000  -0.000   0.000  -0.000   0.000   2.169   0.000   0.000   0.000  -0.000  -1.222  -0.000
  0.000  -0.000   0.000   0.000  -0.000  -0.000  -0.000  -0.000  -0.000   0.000   3.407   0.000   0.000   0.000  -0.000  -2.184
  0.000   0.000   0.000   0.000   0.000  -0.000  -1.222   0.000   0.000   0.000   0.000   1.649   0.000   0.000  -0.000  -0.000
  0.000   0.000   0.000  -0.000  -0.000   0.000   0.000  -1.222   0.000  -0.000   0.000   0.000   1.649  -0.000   0.000  -0.000
  0.000   0.000  -0.000  -0.000   0.000   0.000   0.000  -0.000  -2.184   0.000   0.000  -0.000  -0.000   2.224  -0.000   0.000
  0.000   0.000   0.000  -0.000  -0.000  -0.000  -0.000  -0.000   0.000  -1.222  -0.000  -0.000   0.000  -0.000   1.649  -0.000
  0.000   0.000   0.000  -0.000   0.000  -0.000  -0.000   0.000  -0.000  -0.000  -2.184  -0.000   0.000   0.000   0.000   2.224
 -0.000   0.000   0.000  -0.000   0.000   0.000  -0.000  -0.000  -0.000   0.000  -0.000  -0.000  -0.000   0.000  -0.000   0.000
  0.000   0.000   0.000   0.000   0.000   0.000  -0.000   0.000   0.000   0.000   0.000   0.000   0.000   0.000  -0.000  -0.000
 total augmentation occupancy for first ion, spin component:           2
 -0.002   0.000   0.000  -0.009   0.000   0.000   0.000   0.000   0.000   0.000   0.000   0.000   0.000   0.000   0.000   0.000
  0.000  -0.002   0.000  -0.000  -0.009  -0.000   0.000   0.000   0.000   0.000   0.000  -0.000   0.000   0.000   0.000   0.000
  0.000   0.000  -0.002   0.000   0.000  -0.009   0.000   0.000  -0.000   0.000   0.000   0.000   0.000   0.000   0.000   0.000
 -0.009   0.000   0.000  -0.020   0.000  -0.000  -0.000  -0.000   0.000   0.000  -0.000  -0.000  -0.000  -0.000  -0.000   0.000
 -0.000  -0.009  -0.000  -0.000  -0.020  -0.000   0.000   0.000   0.000  -0.000   0.000   0.000  -0.000   0.000  -0.000   0.000
  0.000   0.000  -0.009  -0.000   0.000  -0.020   0.000   0.000  -0.000  -0.000   0.000  -0.000   0.000   0.000  -0.000   0.000
  0.000  -0.000   0.000   0.000   0.000  -0.000   1.759  -0.000   0.000   0.000  -0.000  -0.661  -0.000  -0.000  -0.000   0.000
  0.000   0.000   0.000   0.000   0.000   0.000   0.000   1.759   0.000  -0.000   0.000   0.000  -0.661  -0.000  -0.000  -0.000
  0.000   0.000   0.000   0.000   0.000   0.000   0.000  -0.000   2.822  -0.000   0.000   0.000  -0.000  -1.163  -0.000   0.000
  0.000   0.000   0.000   0.000  -0.000  -0.000   0.000  -0.000   0.000   1.759   0.000   0.000   0.000   0.000  -0.661  -0.000
  0.000  -0.000   0.000   0.000  -0.000   0.000   0.000   0.000   0.000   0.000   2.822  -0.000  -0.000   0.000   0.000  -1.163
  0.000   0.000   0.000   0.000   0.000  -0.000  -0.661  -0.000  -0.000  -0.000  -0.000  -0.006   0.000  -0.000  -0.000  -0.000
  0.000   0.000   0.000  -0.000  -0.000   0.000  -0.000  -0.661  -0.000   0.000  -0.000  -0.000  -0.006  -0.000   0.000   0.000
  0.000   0.000   0.000  -0.000   0.000   0.000  -0.000   0.000  -1.163   0.000   0.000   0.000  -0.000   0.239  -0.000  -0.000
  0.000   0.000   0.000   0.000  -0.000  -0.000   0.000   0.000  -0.000  -0.661   0.000  -0.000  -0.000  -0.000  -0.006  -0.000
 -0.000   0.000   0.000   0.000   0.000   0.000   0.000  -0.000  -0.000  -0.000  -1.163  -0.000   0.000  -0.000  -0.000   0.239
 -0.000  -0.000  -0.000   0.000   0.000   0.000   0.000   0.000  -0.000  -0.000   0.000  -0.000   0.000   0.000   0.000  -0.000
  0.000   0.000   0.000   0.000   0.000  -0.000   0.000  -0.000  -0.000   0.000   0.000  -0.000  -0.000   0.000  -0.000   0.000


------------------------ aborting loop because EDIFF is reached ----------------------------------------


 


 total charge     
 
# of ion       s       p       d       tot
------------------------------------------
    1        0.385   6.378   6.075  12.837
    2        0.385   6.378   6.075  12.837
--------------------------------------------------
tot          0.770  12.755  12.150  25.675
 


 magnetization (x)
 
# of ion       s       p       d       tot
------------------------------------------
    1       -0.008  -0.042   2.292   2.243
    2       -0.008  -0.042   2.292   2.243
--------------------------------------------------
tot         -0.015  -0.083   4.584   4.485
 
    CHARGE:  cpu time    0.0246: real time    0.0246
    FORLOC:  cpu time    0.0002: real time    0.0002
    FORNL :  cpu time    0.1348: real time    0.1353
    STRESS:  cpu time    0.4027: real time    0.4037
    FORCOR:  cpu time    0.0112: real time    0.0114
    FORHAR:  cpu time    0.0013: real time    0.0013
    MIXING:  cpu time    0.0006: real time    0.0006
    OFIELD:  cpu time    0.0000: real time    0.0000

  FORCE on cell =-STRESS in cart. coord.  units (eV):
  Direction    XX          YY          ZZ          XY          YZ          ZX
  --------------------------------------------------------------------------------------
  Alpha Z   218.87049   218.87049   218.87049
  Ewald   -1205.52018 -1205.52018 -1205.52018    -0.00000    -0.00000    -0.00000
  Hartree   363.30785   363.30785   363.30785    -0.00000    -0.00000    -0.00000
  E(xc)    -179.77974  -179.77974  -179.77974    -0.00000    -0.00000    -0.00000
  Local     289.65774   289.65774   289.65774     0.00000    -0.00000     0.00000
  n-local   -60.14969   -54.13280   -50.52903     2.76367    -1.55433     0.58419
  augment   285.39161   285.39161   285.39161     0.00000    -0.00000     0.00000
  Kinetic   283.97091   282.52133   281.79627     2.93477    -0.74638    -0.06439
  Fock        0.00000     0.00000     0.00000     0.00000     0.00000     0.00000
  -------------------------------------------------------------------------------------
  Total      -0.24657    -0.24657    -0.24657    -0.00000    -0.00000     0.00000
  in kB     -17.24547   -17.24547   -17.24547    -0.00000    -0.00000     0.00000
  external pressure =      -17.25 kB  Pullay stress =        0.00 kB


 VOLUME and BASIS-vectors are now :
 -----------------------------------------------------------------------------
  energy-cutoff  :      960.00
  volume of cell :       22.91
      direct lattice vectors                 reciprocal lattice vectors
     2.840052000  0.000000000  0.000000000     0.352106229  0.000000000  0.000000000
     0.000000000  2.840052000  0.000000000     0.000000000  0.352106229  0.000000000
     0.000000000  0.000000000  2.840052000     0.000000000  0.000000000  0.352106229

  length of vectors
     2.840052000  2.840052000  2.840052000     0.352106229  0.352106229  0.352106229


 FORCES acting on ions
    electron-ion (+dipol)            ewald-force                    non-local-force                 convergence-correction
 -----------------------------------------------------------------------------------------------
   0.139E-13 -.538E-14 -.156E-13   -.529E-15 -.103E-14 -.897E-14   0.000E+00 0.162E-25 0.000E+00   -.431E-13 0.795E-15 -.775E-13
   0.410E-12 0.155E-11 0.322E-12   0.472E-14 0.447E-14 0.926E-14   0.000E+00 0.000E+00 -.646E-26   0.293E-14 -.111E-13 0.657E-13
 -----------------------------------------------------------------------------------------------
   0.424E-12 0.154E-11 0.307E-12   0.419E-14 0.343E-14 0.284E-15   0.000E+00 0.162E-25 -.646E-26   -.401E-13 -.103E-13 -.118E-13
 
 
 POSITION                                       TOTAL-FORCE (eV/Angst)
 -----------------------------------------------------------------------------------
      0.00000      0.00000      0.00000         0.000000      0.000000      0.000000
      1.42003      1.42003      1.42003        -0.000000     -0.000000     -0.000000
 -----------------------------------------------------------------------------------
    total drift:                                0.000000      0.000000      0.000000


--------------------------------------------------------------------------------------------------------



  FREE ENERGIE OF THE ION-ELECTRON SYSTEM (eV)
  ---------------------------------------------------
  free  energy   TOTEN  =       -16.51479452 eV

  energy  without entropy=      -16.51479452  energy(sigma->0) =      -16.51479452
 


--------------------------------------------------------------------------------------------------------


    POTLOK:  cpu time    0.0171: real time    0.0171


--------------------------------------------------------------------------------------------------------


     LOOP+:  cpu time   10.1801: real time   10.2133
    4ORBIT:  cpu time    0.0000: real time    0.0000
 


 total charge     
 
# of ion       s       p       d       tot
------------------------------------------
    1        0.385   6.378   6.075  12.837
    2        0.385   6.378   6.075  12.837
--------------------------------------------------
tot          0.770  12.755  12.150  25.675
 


 magnetization (x)
 
# of ion       s       p       d       tot
------------------------------------------
    1       -0.008  -0.042   2.292   2.243
    2       -0.008  -0.042   2.292   2.243
--------------------------------------------------
tot         -0.015  -0.083   4.584   4.485
 
 BZINTS: Fermi energy:  9.622672; 28.000000 electrons
         Band energy:-399.270110;  BLOECHL correction: -0.034712

 total amount of memory used by VASP MPI-rank0    34990. kBytes
=======================================================================

   base      :      30000. kBytes
   nonlr-proj:       1144. kBytes
   fftplans  :        580. kBytes
   grid      :       1381. kBytes
   one-center:         31. kBytes
   wavefun   :       1854. kBytes
 
  
  
 General timing and accounting informations for this job:
 ========================================================
  
                  Total CPU time used (sec):       11.017
                            User time (sec):       10.854
                          System time (sec):        0.163
                         Elapsed time (sec):       11.064
  
                   Maximum memory used (kb):       61276.
                   Average memory used (kb):           0.
  
                          Minor page faults:        15472
                          Major page faults:            0
                 Voluntary context switches:          150
