 vasp.5.4.4.18Apr17-6-g9f103f2a35 (build Apr 28 2018 00:24:27) complex          
  
 executed on             LinuxIFC date 2021.03.25  02:01:04
 running on    8 total cores
 distrk:  each k-point on    8 cores,    1 groups
 distr:  one band on NCORES_PER_BAND=   8 cores,    1 groups


--------------------------------------------------------------------------------------------------------


 INCAR:
 POTCAR:    PAW_PBE Mn 06Sep2000                  
 POTCAR:    PAW_PBE Bi 08Apr2002                  

 ----------------------------------------------------------------------------- 
|                                                                             |
|           W    W    AA    RRRRR   N    N  II  N    N   GGGG   !!!           |
|           W    W   A  A   R    R  NN   N  II  NN   N  G    G  !!!           |
|           W    W  A    A  R    R  N N  N  II  N N  N  G       !!!           |
|           W WW W  AAAAAA  RRRRR   N  N N  II  N  N N  G  GGG   !            |
|           WW  WW  A    A  R   R   N   NN  II  N   NN  G    G                |
|           W    W  A    A  R    R  N    N  II  N    N   GGGG   !!!           |
|                                                                             |
|      For optimal performance we recommend to set                            |
|        NCORE= 4 - approx SQRT( number of cores)                             |
|      NCORE specifies how many cores store one orbital (NPAR=cpu/NCORE).     |
|      This setting can  greatly improve the performance of VASP for DFT.     |
|      The default,   NCORE=1            might be grossly inefficient         |
|      on modern multi-core architectures or massively parallel machines.     |
|      Do your own testing !!!!                                               |
|      Unfortunately you need to use the default for GW and RPA calculations. |
|      (for HF NCORE is supported but not extensively tested yet)             |
|                                                                             |
 ----------------------------------------------------------------------------- 

 POTCAR:    PAW_PBE Mn 06Sep2000                  
   SHA256 =  791c87526310ff945dc83749a51ee60ee299d345ff72743aeb14609b9ed68bfc Mn
   COPYR  = (c) Copyright 06Sep2000 Georg Kresse                                
   COPYR  = This file is part of the software VASP. Any use, copying, and all ot
   COPYR  = If you do not have a valid VASP license, you may not use, copy or di
   VRHFIN =Mn: d6 s1                                                            
   LEXCH  = PE                                                                  
   EATOM  =   416.7541 eV,   30.6306 Ry                                         
                                                                                
   TITEL  = PAW_PBE Mn 06Sep2000                                                
   LULTRA =        F    use ultrasoft PP ?                                      
   IUNSCR =        1    unscreen: 0-lin 1-nonlin 2-no                           
   RPACOR =    2.000    partial core radius                                     
   POMASS =   54.938; ZVAL   =    7.000    mass and valenz                      
   RCORE  =    2.300    outmost cutoff radius                                   
   RWIGS  =    2.500; RWIGS  =    1.323    wigner-seitz radius (au A)           
   ENMAX  =  269.864; ENMIN  =  202.398 eV                                      
   RCLOC  =    1.725    cutoff for local pot                                    
   LCOR   =        T    correct aug charges                                     
   LPAW   =        T    paw PP                                                  
   EAUG   =  500.711                                                            
   DEXC   =    0.000                                                            
   RMAX   =    2.343    core radius for proj-oper                               
   RAUG   =    1.300    factor for augmentation sphere                          
   RDEP   =    2.338    radius for radial grids                                 
   RDEPT  =    1.911    core radius for aug-charge                              
                                                                                
   Atomic configuration                                                         
    9 entries                                                                   
     n  l   j            E        occ.                                          
     1  0  0.50     -6424.8288   2.0000                                         
     2  0  0.50      -739.1154   2.0000                                         
     2  1  1.50      -625.3949   6.0000                                         
     3  0  0.50       -81.6100   2.0000                                         
     3  1  1.50       -50.4667   6.0000                                         
     3  2  2.50        -3.3745   6.0000                                         
     4  0  0.50        -4.1331   1.0000                                         
     4  1  0.50        -4.0817   0.0000                                         
     4  3  2.50        -1.3606   0.0000                                         
   Description                                                                  
     l       E           TYP  RCUT    TYP  RCUT                                 
     2     -3.3744664     23  2.300                                             
     2     -4.7350490     23  2.300                                             
     0     -4.1331408     23  2.300                                             
     0      7.6656614     23  2.300                                             
     1     -2.7211652     23  2.300                                             
     1     20.4087390     23  2.300                                             
  local pseudopotential read in
  partial core-charges read in
  partial kinetic energy density read in
  atomic valenz-charges read in
  non local Contribution for L=           2  read in
    real space projection operators read in
  non local Contribution for L=           2  read in
    real space projection operators read in
  non local Contribution for L=           0  read in
    real space projection operators read in
  non local Contribution for L=           0  read in
    real space projection operators read in
  non local Contribution for L=           1  read in
    real space projection operators read in
  non local Contribution for L=           1  read in
    real space projection operators read in
    PAW grid and wavefunctions read in
 
   number of l-projection  operators is LMAX  =           6
   number of lm-projection operators is LMMAX =          18
 
 POTCAR:    PAW_PBE Bi 08Apr2002                  
   SHA256 =  d6b6753ed5db3f0e277fb15e6dbb6699c4bc829850a481068e9e7236faeca489 Bi
   COPYR  = (c) Copyright 08Apr2002 Georg Kresse                                
   COPYR  = This file is part of the software VASP. Any use, copying, and all ot
   COPYR  = If you do not have a valid VASP license, you may not use, copy or di
   VRHFIN =Bi:                                                                  
   LEXCH  = PE                                                                  
   EATOM  =   150.8133 eV,   11.0845 Ry                                         
                                                                                
   TITEL  = PAW_PBE Bi 08Apr2002                                                
   LULTRA =        F    use ultrasoft PP ?                                      
   IUNSCR =        1    unscreen: 0-lin 1-nonlin 2-no                           
   RPACOR =    2.200    partial core radius                                     
   POMASS =  208.980; ZVAL   =    5.000    mass and valenz                      
   RCORE  =    3.000    outmost cutoff radius                                   
   RWIGS  =    3.090; RWIGS  =    1.635    wigner-seitz radius (au A)           
   ENMAX  =  105.037; ENMIN  =   78.777 eV                                      
   ICORE  =        3    local potential                                         
   LCOR   =        T    correct aug charges                                     
   LPAW   =        T    paw PP                                                  
   EAUG   =  265.427                                                            
   DEXC   =    0.000                                                            
   RMAX   =    3.067    core radius for proj-oper                               
   RAUG   =    1.300    factor for augmentation sphere                          
   RDEP   =    3.012    radius for radial grids                                 
   RDEPT  =    2.604    core radius for aug-charge                              
                                                                                
   Atomic configuration                                                         
   17 entries                                                                   
     n  l   j            E        occ.                                          
     1  0  0.50    -90639.6582   2.0000                                         
     2  0  0.50    -16282.4667   2.0000                                         
     2  1  1.50    -13922.8287   6.0000                                         
     3  0  0.50     -3930.4763   2.0000                                         
     3  1  1.50     -3256.7013   6.0000                                         
     3  2  2.50     -2581.6169  10.0000                                         
     4  0  0.50      -902.2614   2.0000                                         
     4  1  1.50      -681.5915   6.0000                                         
     4  2  2.50      -429.8249  10.0000                                         
     4  3  3.50      -152.6004  14.0000                                         
     5  0  0.50      -157.7156   2.0000                                         
     5  1  1.50       -95.8054   6.0000                                         
     5  2  2.50       -27.0806  10.0000                                         
     6  0  0.50       -14.4732   2.0000                                         
     6  1  1.50        -4.5702   3.0000                                         
     6  2  2.50        -2.7212   0.0000                                         
     5  3  2.50        -2.7212   0.0000                                         
   Description                                                                  
     l       E           TYP  RCUT    TYP  RCUT                                 
     0    -14.4732299     23  3.000                                             
     0    -12.2452434     23  3.000                                             
     1     -4.5701666     23  3.000                                             
     1    -13.6058260     23  3.000                                             
     2     -2.7211652     23  3.000                                             
     3     -1.3605826      7  3.000                                             
  local pseudopotential read in
  partial core-charges read in
  partial kinetic energy density read in
  kinetic energy density of atom read in
  atomic valenz-charges read in
  non local Contribution for L=           0  read in
    real space projection operators read in
  non local Contribution for L=           0  read in
    real space projection operators read in
  non local Contribution for L=           1  read in
    real space projection operators read in
  non local Contribution for L=           1  read in
    real space projection operators read in
  non local Contribution for L=           2  read in
    real space projection operators read in
    PAW grid and wavefunctions read in
 
   number of l-projection  operators is LMAX  =           5
   number of lm-projection operators is LMMAX =          13
 
  PAW_PBE Mn 06Sep2000                  :
 energy of atom  1       EATOM= -416.7541
 kinetic energy error for atom=    0.0024 (will be added to EATOM!!)
  PAW_PBE Bi 08Apr2002                  :
 energy of atom  2       EATOM= -150.8133
 kinetic energy error for atom=    0.0001 (will be added to EATOM!!)
 
 
 POSCAR: Mn1 Bi1 str #: 5                        
  positions in direct lattice
  No initial velocities read in
 exchange correlation table for  LEXCH =        8
   RHO(1)=    0.500       N(1)  =     2000
   RHO(2)=  100.500       N(2)  =     4000
 


--------------------------------------------------------------------------------------------------------


 ion  position               nearest neighbor table
   1  0.500  0.750  0.000-   5 2.76   5 2.76   6 2.76   8 2.76
   2  0.000  0.250  0.250-   6 2.76   6 2.76   7 2.76   5 2.76
   3  0.500  0.750  0.500-   7 2.76   7 2.76   8 2.76   6 2.76
   4  0.000  0.250  0.750-   8 2.76   8 2.76   5 2.76   7 2.76
   5  0.000  0.000  0.000-   1 2.76   1 2.76   4 2.76   2 2.76
   6  0.500  0.500  0.250-   2 2.76   2 2.76   1 2.76   3 2.76
   7  0.000  0.000  0.500-   3 2.76   3 2.76   2 2.76   4 2.76
   8  0.500  0.500  0.750-   4 2.76   4 2.76   3 2.76   1 2.76
 

IMPORTANT INFORMATION: All symmetrisations will be switched off!
NOSYMM: (Re-)initialisation of all symmetry stuff for point group C_1.

 
 

Automatic generation of k-mesh.
 generate k-points for:    3    2    2
Space group operators:
 irot       det(A)        alpha          n_x          n_y          n_z        tau_x        tau_y        tau_z
    1     1.000000     0.000000     1.000000     0.000000     0.000000     0.000000     0.000000     0.000000
 
 Subroutine IBZKPT returns following result:
 ===========================================
 
 Found      8 irreducible k-points:
 
 Following reciprocal coordinates:
            Coordinates               Weight
  0.000000  0.000000  0.000000      1.000000
  0.333333  0.000000  0.000000      2.000000
  0.000000  0.500000  0.000000      1.000000
  0.333333  0.500000 -0.000000      2.000000
  0.000000  0.000000  0.500000      1.000000
  0.333333  0.000000  0.500000      2.000000
  0.000000  0.500000  0.500000      1.000000
  0.333333  0.500000  0.500000      2.000000
 
 Following cartesian coordinates:
            Coordinates               Weight
  0.000000  0.000000  0.000000      1.000000
  0.074065  0.000000  0.000000      2.000000
  0.000000  0.064142  0.045355      1.000000
  0.074065  0.064142  0.045355      2.000000
  0.000000 -0.032071  0.045355      1.000000
  0.074065 -0.032071  0.045355      2.000000
  0.000000  0.032071  0.090711      1.000000
  0.074065  0.032071  0.090711      2.000000
 


--------------------------------------------------------------------------------------------------------




 Dimension of arrays:
   k-points           NKPTS =      8   k-points in BZ     NKDIM =      8   number of bands    NBANDS=     29
   number of dos      NEDOS =    301   number of ions     NIONS =      8
   non local maximal  LDIM  =      6   non local SUM 2l+1 LMDIM =     18
   total plane-waves  NPLWV = 120960
   max r-space proj   IRMAX =      1   max aug-charges    IRDMAX=  44883
   dimension x,y,z NGX =    36 NGY =   48 NGZ =   70
   dimension x,y,z NGXF=    72 NGYF=   96 NGZF=  140
   support grid    NGXF=    72 NGYF=   96 NGZF=  140
   ions per type =               4   4
   NGX,Y,Z   is equivalent  to a cutoff of  13.30, 12.54, 12.93 a.u.
   NGXF,Y,Z  is equivalent  to a cutoff of  26.60, 25.07, 25.86 a.u.

 SYSTEM =  BiMn                                    
 POSCAR =  Mn1 Bi1 str #: 5                        

 Startparameter for this run:
   NWRITE =      2    write-flag & timer
   PREC   = accura    normal or accurate (medium, high low for compatibility)
   ISTART =      0    job   : 0-new  1-cont  2-samecut
   ICHARG =      2    charge: 1-file 2-atom 10-const
   ISPIN  =      2    spin polarized calculation?
   LNONCOLLINEAR =      F non collinear calculations
   LSORBIT =      F    spin-orbit coupling
   INIWAV =      1    electr: 0-lowe 1-rand  2-diag
   LASPH  =      F    aspherical Exc in radial PAW
   METAGGA=      F    non-selfconsistent MetaGGA calc.

 Electronic Relaxation 1
   ENCUT  =  500.0 eV  36.75 Ry    6.06 a.u.   8.21 11.60 16.41*2*pi/ulx,y,z
   ENINI  =  500.0     initial cutoff
   ENAUG  =  500.7 eV  augmentation charge cutoff
   NELM   =     60;   NELMIN=  2; NELMDL= -5     # of ELM steps 
   EDIFF  = 0.1E-05   stopping-criterion for ELM
   LREAL  =      F    real-space projection
   NLSPLINE    = F    spline interpolate recip. space projectors
   LCOMPAT=      F    compatible to vasp.4.4
   GGA_COMPAT  = T    GGA compatible to vasp.4.4-vasp.4.6
   LMAXPAW     = -100 max onsite density
   LMAXMIX     =    2 max onsite mixed and CHGCAR
   VOSKOWN=      0    Vosko Wilk Nusair interpolation
   ROPT   =    0.00000   0.00000
 Ionic relaxation
   EDIFFG = 0.1E-04   stopping-criterion for IOM
   NSW    =      0    number of steps for IOM
   NBLOCK =      1;   KBLOCK =      1    inner block; outer block 
   IBRION =     -1    ionic relax: 0-MD 1-quasi-New 2-CG
   NFREE  =      1    steps in history (QN), initial steepest desc. (CG)
   ISIF   =      2    stress and relaxation
   IWAVPR =     10    prediction:  0-non 1-charg 2-wave 3-comb
   ISYM   =      0    0-nonsym 1-usesym 2-fastsym
   LCORR  =      T    Harris-Foulkes like correction to forces

   POTIM  = 0.5000    time-step for ionic-motion
   TEIN   =    0.0    initial temperature
   TEBEG  =    0.0;   TEEND  =   0.0 temperature during run
   SMASS  =  -3.00    Nose mass-parameter (am)
   estimated Nose-frequenzy (Omega)   =  0.10E-29 period in steps =****** mass=  -0.463E-27a.u.
   SCALEE = 1.0000    scale energy and forces
   NPACO  =    256;   APACO  = 16.0  distance and # of slots for P.C.
   PSTRESS=    0.0 pullay stress

  Mass of Ions in am
   POMASS =  54.94208.98
  Ionic Valenz
   ZVAL   =   7.00  5.00
  Atomic Wigner-Seitz radii
   RWIGS  =  -1.00 -1.00
  virtual crystal weights 
   VCA    =   1.00  1.00
   NELECT =      48.0000    total number of electrons
   NUPDOWN=      -1.0000    fix difference up-down

 DOS related values:
   EMIN   =  10.00;   EMAX   =-10.00  energy-range for DOS
   EFERMI =   0.00
   ISMEAR =     1;   SIGMA  =   0.10  broadening in eV -4-tet -1-fermi 0-gaus

 Electronic relaxation 2 (details)
   IALGO  =     38    algorithm
   LDIAG  =      T    sub-space diagonalisation (order eigenvalues)
   LSUBROT=      F    optimize rotation matrix (better conditioning)
   TURBO    =      0    0=normal 1=particle mesh
   IRESTART =      0    0=no restart 2=restart with 2 vectors
   NREBOOT  =      0    no. of reboots
   NMIN     =      0    reboot dimension
   EREF     =   0.00    reference energy to select bands
   IMIX   =      4    mixing-type and parameters
     AMIX     =   0.40;   BMIX     =  1.00
     AMIX_MAG =   1.60;   BMIX_MAG =  1.00
     AMIN     =   0.10
     WC   =   100.;   INIMIX=   1;  MIXPRE=   1;  MAXMIX= -45

 Intra band minimization:
   WEIMIN = 0.0000     energy-eigenvalue tresh-hold
   EBREAK =  0.86E-08  absolut break condition
   DEPER  =   0.30     relativ break condition  

   TIME   =   0.40     timestep for ELM

  volume/ion in A,a.u.               =      32.23       217.50
  Fermi-wavevector in a.u.,A,eV,Ry     =   0.934775  1.766469 11.888837  0.873805
  Thomas-Fermi vector in A             =   2.061615
 
 Write flags
   LWAVE        =      F    write WAVECAR
   LDOWNSAMPLE  =      F    k-point downsampling of WAVECAR
   LCHARG       =      F    write CHGCAR
   LVTOT        =      F    write LOCPOT, total local potential
   LVHAR        =      F    write LOCPOT, Hartree potential only
   LELF         =      F    write electronic localiz. function (ELF)
   LORBIT       =     11    0 simple, 1 ext, 2 COOP (PROOUT), +10 PAW based schemes


 Dipole corrections
   LMONO  =      F    monopole corrections only (constant potential shift)
   LDIPOL =      F    correct potential (dipole corrections)
   IDIPOL =      0    1-x, 2-y, 3-z, 4-all directions 
   EPSILON=  1.0000000 bulk dielectric constant

 Exchange correlation treatment:
   GGA     =    --    GGA type
   LEXCH   =     8    internal setting for exchange type
   VOSKOWN=      0    Vosko Wilk Nusair interpolation
   LHFCALC =     F    Hartree Fock is set to
   LHFONE  =     F    Hartree Fock one center treatment
   AEXX    =    0.0000 exact exchange contribution

 Linear response parameters
   LEPSILON=     F    determine dielectric tensor
   LRPA    =     F    only Hartree local field effects (RPA)
   LNABLA  =     F    use nabla operator in PAW spheres
   LVEL    =     F    velocity operator in full k-point grid
   LINTERFAST=   F  fast interpolation
   KINTER  =     0    interpolate to denser k-point grid
   CSHIFT  =0.1000    complex shift for real part using Kramers Kronig
   OMEGAMAX=  -1.0    maximum frequency
   DEG_THRESHOLD= 0.2000000E-02 threshold for treating states as degnerate
   RTIME   =   -0.100 relaxation time in fs
  (WPLASMAI=    0.000 imaginary part of plasma frequency in eV, 0.658/RTIME)
   DFIELD  = 0.0000000 0.0000000 0.0000000 field for delta impulse in time
 
 Orbital magnetization related:
   ORBITALMAG=     F  switch on orbital magnetization
   LCHIMAG   =     F  perturbation theory with respect to B field
   DQ        =  0.001000  dq finite difference perturbation B field
   LLRAUG    =     F  two centre corrections for induced B field



--------------------------------------------------------------------------------------------------------


 Static calculation
 charge density and potential will be updated during run
 spin polarized calculation
 Variant of blocked Davidson
 Davidson routine will perform the subspace rotation
 perform sub-space diagonalisation
    after iterative eigenvector-optimisation
 modified Broyden-mixing scheme, WC =      100.0
 initial mixing is a Kerker type mixing with AMIX =  0.4000 and BMIX =      1.0000
 Hartree-type preconditioning will be used
 using additional bands            5
 reciprocal scheme for non local part
 use partial core corrections
 calculate Harris-corrections to forces 
   (improved forces if not selfconsistent)
 use gradient corrections 
 use of overlap-Matrix (Vanderbilt PP)
 Methfessel and Paxton  Order N= 1 SIGMA  =   0.10


--------------------------------------------------------------------------------------------------------


  energy-cutoff  :      500.00
  volume of cell :      257.84
      direct lattice vectors                 reciprocal lattice vectors
     4.500557900  0.000000000  0.000000000     0.222194675  0.000000003  0.000000002
    -0.000000100  5.196796700  3.674690100     0.000000000  0.128284155  0.090710596
     0.000000000 -5.196796600  7.349380200     0.000000000 -0.064142077  0.090710598

  length of vectors
     4.500557900  6.364750056  9.001115721     0.222194675  0.157115361  0.111097338


 
 k-points in units of 2pi/SCALE and weight: read from INCAR                         
   0.00000000  0.00000000  0.00000000       0.083
   0.07406489  0.00000000  0.00000000       0.167
   0.00000000  0.06414208  0.04535530       0.083
   0.07406489  0.06414208  0.04535530       0.167
   0.00000000 -0.03207104  0.04535530       0.083
   0.07406489 -0.03207104  0.04535530       0.167
   0.00000000  0.03207104  0.09071060       0.083
   0.07406489  0.03207104  0.09071060       0.167
 
 k-points in reciprocal lattice and weights: read from INCAR                         
   0.00000000  0.00000000  0.00000000       0.083
   0.33333333  0.00000000  0.00000000       0.167
   0.00000000  0.50000000  0.00000000       0.083
   0.33333333  0.50000000 -0.00000000       0.167
   0.00000000  0.00000000  0.50000000       0.083
   0.33333333  0.00000000  0.50000000       0.167
   0.00000000  0.50000000  0.50000000       0.083
   0.33333333  0.50000000  0.50000000       0.167
 
 position of ions in fractional coordinates (direct lattice) 
   0.50000001  0.75000002  0.00000001
   0.00000001  0.25000002  0.25000001
   0.50000001  0.75000002  0.50000001
   0.00000001  0.25000002  0.75000001
   0.00000000  0.00000000  0.00000000
   0.50000000  0.50000000  0.25000000
   0.00000000  0.00000000  0.50000000
   0.50000000  0.50000000  0.75000000
 
 position of ions in cartesian coordinates  (Angst):
   2.25027890  3.89759760  2.75601770
   0.00000000  0.00000010  2.75601770
   2.25027890  1.29919930  6.43070780
   0.00000000 -2.59839820  6.43070780
   0.00000000  0.00000000  0.00000000
   2.25027890  1.29919920  3.67469010
   0.00000000 -2.59839830  3.67469010
   2.25027890 -1.29919910  7.34938020
 


--------------------------------------------------------------------------------------------------------


 k-point  1 :   0.0000 0.0000 0.0000  plane waves:    6567
 k-point  2 :   0.3333 0.0000 0.0000  plane waves:    6566
 k-point  3 :   0.0000 0.5000 0.0000  plane waves:    6516
 k-point  4 :   0.3333 0.5000-0.0000  plane waves:    6554
 k-point  5 :   0.0000 0.0000 0.5000  plane waves:    6520
 k-point  6 :   0.3333 0.0000 0.5000  plane waves:    6532
 k-point  7 :   0.0000 0.5000 0.5000  plane waves:    6556
 k-point  8 :   0.3333 0.5000 0.5000  plane waves:    6528

 maximum and minimum number of plane-waves per node :       834      791

 maximum number of plane-waves:      6567
 maximum index in each direction: 
   IXMAX=    8   IYMAX=   11   IZMAX=   16
   IXMIN=   -8   IYMIN=  -12   IZMIN=  -16


 parallel 3D FFT for wavefunctions:
    minimum data exchange during FFTs selected (reduces bandwidth)
 parallel 3D FFT for charge:
    minimum data exchange during FFTs selected (reduces bandwidth)


 total amount of memory used by VASP MPI-rank0    54047. kBytes
=======================================================================

   base      :      30000. kBytes
   nonl-proj :       2006. kBytes
   fftplans  :       4613. kBytes
   grid      :      11139. kBytes
   one-center:         31. kBytes
   wavefun   :       6258. kBytes
 
     INWAV:  cpu time    0.0000: real time    0.0001
 Broyden mixing: mesh for mixing (old mesh)
   NGX = 17   NGY = 23   NGZ = 33
  (NGX  = 72   NGY  = 96   NGZ  =140)
  gives a total of  12903 points

 initial charge density was supplied:
 charge density of overlapping atoms calculated
 number of electron      48.0000000 magnetization       0.0000000
 keeping initial charge density in first step


--------------------------------------------------------------------------------------------------------


 Maximum index for augmentation-charges         5438 (set IRDMAX)


--------------------------------------------------------------------------------------------------------


 First call to EWALD:  gamma=   0.278
 Maximum number of real-space cells 4x 3x 2
 Maximum number of reciprocal cells 2x 3x 4

    FEWALD:  cpu time    0.0014: real time    0.0015


--------------------------------------- Iteration      1(   1)  ---------------------------------------


    POTLOK:  cpu time    0.1825: real time    0.1830
    SETDIJ:  cpu time    0.0167: real time    0.0168
     EDDAV:  cpu time    1.0778: real time    1.0958
       DOS:  cpu time    0.0015: real time    0.0015
    --------------------------------------------
      LOOP:  cpu time    1.2786: real time    1.2970

 eigenvalue-minimisations  :   928
 total energy-change (2. order) : 0.3535999E+03  (-0.1589192E+04)
 number of electron      48.0000000 magnetization       0.0000000
 augmentation part       48.0000000 magnetization       0.0000000

 Free energy of the ion-electron system (eV)
  ---------------------------------------------------
  alpha Z        PSCENC =        67.66360410
  Ewald energy   TEWEN  =     -1789.19724323
  -Hartree energ DENC   =      -644.87086981
  -exchange      EXHF   =         0.00000000
  -V(xc)+E(xc)   XCENC  =      -485.93673931
  PAW double counting   =      2520.09005386    -1992.98838836
  entropy T*S    EENTRO =         0.00174628
  eigenvalues    EBANDS =       408.57798448
  atomic energy  EATOM  =      2270.25976610
  Solvation  Ediel_sol  =         0.00000000
  ---------------------------------------------------
  free energy    TOTEN  =       353.59991411 eV

  energy without entropy =      353.59816784  energy(sigma->0) =      353.59933202


--------------------------------------------------------------------------------------------------------




--------------------------------------- Iteration      1(   2)  ---------------------------------------


     EDDAV:  cpu time    1.0590: real time    1.0617
       DOS:  cpu time    0.0020: real time    0.0020
    --------------------------------------------
      LOOP:  cpu time    1.0609: real time    1.0636

 eigenvalue-minimisations  :   928
 total energy-change (2. order) :-0.3450763E+03  (-0.3349155E+03)
 number of electron      48.0000000 magnetization       0.0000000
 augmentation part       48.0000000 magnetization       0.0000000

 Free energy of the ion-electron system (eV)
  ---------------------------------------------------
  alpha Z        PSCENC =        67.66360410
  Ewald energy   TEWEN  =     -1789.19724323
  -Hartree energ DENC   =      -644.87086981
  -exchange      EXHF   =         0.00000000
  -V(xc)+E(xc)   XCENC  =      -485.93673931
  PAW double counting   =      2520.09005386    -1992.98838836
  entropy T*S    EENTRO =         0.00261189
  eigenvalues    EBANDS =        63.50082298
  atomic energy  EATOM  =      2270.25976610
  Solvation  Ediel_sol  =         0.00000000
  ---------------------------------------------------
  free energy    TOTEN  =         8.52361823 eV

  energy without entropy =        8.52100634  energy(sigma->0) =        8.52274760


--------------------------------------------------------------------------------------------------------




--------------------------------------- Iteration      1(   3)  ---------------------------------------


     EDDAV:  cpu time    1.5905: real time    1.5944
       DOS:  cpu time    0.0021: real time    0.0021
    --------------------------------------------
      LOOP:  cpu time    1.5926: real time    1.5965

 eigenvalue-minimisations  :  1568
 total energy-change (2. order) :-0.5316604E+02  (-0.5033753E+02)
 number of electron      48.0000000 magnetization       0.0000000
 augmentation part       48.0000000 magnetization       0.0000000

 Free energy of the ion-electron system (eV)
  ---------------------------------------------------
  alpha Z        PSCENC =        67.66360410
  Ewald energy   TEWEN  =     -1789.19724323
  -Hartree energ DENC   =      -644.87086981
  -exchange      EXHF   =         0.00000000
  -V(xc)+E(xc)   XCENC  =      -485.93673931
  PAW double counting   =      2520.09005386    -1992.98838836
  entropy T*S    EENTRO =        -0.00085820
  eigenvalues    EBANDS =        10.33824969
  atomic energy  EATOM  =      2270.25976610
  Solvation  Ediel_sol  =         0.00000000
  ---------------------------------------------------
  free energy    TOTEN  =       -44.64242515 eV

  energy without entropy =      -44.64156695  energy(sigma->0) =      -44.64213908


--------------------------------------------------------------------------------------------------------




--------------------------------------- Iteration      1(   4)  ---------------------------------------


     EDDAV:  cpu time    1.6406: real time    1.6447
       DOS:  cpu time    0.0020: real time    0.0020
    --------------------------------------------
      LOOP:  cpu time    1.6427: real time    1.6467

 eigenvalue-minimisations  :  1664
 total energy-change (2. order) :-0.5056520E+01  (-0.4837170E+01)
 number of electron      48.0000000 magnetization       0.0000000
 augmentation part       48.0000000 magnetization       0.0000000

 Free energy of the ion-electron system (eV)
  ---------------------------------------------------
  alpha Z        PSCENC =        67.66360410
  Ewald energy   TEWEN  =     -1789.19724323
  -Hartree energ DENC   =      -644.87086981
  -exchange      EXHF   =         0.00000000
  -V(xc)+E(xc)   XCENC  =      -485.93673931
  PAW double counting   =      2520.09005386    -1992.98838836
  entropy T*S    EENTRO =        -0.00350116
  eigenvalues    EBANDS =         5.28437271
  atomic energy  EATOM  =      2270.25976610
  Solvation  Ediel_sol  =         0.00000000
  ---------------------------------------------------
  free energy    TOTEN  =       -49.69894508 eV

  energy without entropy =      -49.69544393  energy(sigma->0) =      -49.69777803


--------------------------------------------------------------------------------------------------------




--------------------------------------- Iteration      1(   5)  ---------------------------------------


     EDDAV:  cpu time    1.4825: real time    1.4861
       DOS:  cpu time    0.0019: real time    0.0019
    CHARGE:  cpu time    0.1260: real time    0.1263
    MIXING:  cpu time    0.0025: real time    0.0025
    --------------------------------------------
      LOOP:  cpu time    1.6128: real time    1.6167

 eigenvalue-minimisations  :  1544
 total energy-change (2. order) :-0.2842742E+00  (-0.2763626E+00)
 number of electron      48.0000006 magnetization       0.0047021
 augmentation part        3.7870777 magnetization       0.0016867

 Broyden mixing:
  rms(total) = 0.19077E+01    rms(broyden)= 0.19077E+01
  rms(prec ) = 0.27245E+01
  weight for this iteration     100.00

 Free energy of the ion-electron system (eV)
  ---------------------------------------------------
  alpha Z        PSCENC =        67.66360410
  Ewald energy   TEWEN  =     -1789.19724323
  -Hartree energ DENC   =      -644.87086981
  -exchange      EXHF   =         0.00000000
  -V(xc)+E(xc)   XCENC  =      -485.93673931
  PAW double counting   =      2520.09005386    -1992.98838836
  entropy T*S    EENTRO =        -0.00598243
  eigenvalues    EBANDS =         5.00257975
  atomic energy  EATOM  =      2270.25976610
  Solvation  Ediel_sol  =         0.00000000
  ---------------------------------------------------
  free energy    TOTEN  =       -49.98321932 eV

  energy without entropy =      -49.97723689  energy(sigma->0) =      -49.98122518


--------------------------------------------------------------------------------------------------------




--------------------------------------- Iteration      1(   6)  ---------------------------------------


    POTLOK:  cpu time    0.1461: real time    0.1466
    SETDIJ:  cpu time    0.0134: real time    0.0134
     EDDAV:  cpu time    1.6887: real time    1.6927
       DOS:  cpu time    0.0023: real time    0.0023
    CHARGE:  cpu time    0.1354: real time    0.1357
    MIXING:  cpu time    0.0033: real time    0.0033
    --------------------------------------------
      LOOP:  cpu time    1.9892: real time    1.9941

 eigenvalue-minimisations  :  1808
 total energy-change (2. order) :-0.6374106E+01  (-0.1771808E+02)
 number of electron      48.0000012 magnetization       0.0197058
 augmentation part       13.0365713 magnetization      -0.0106669

 Broyden mixing:
  rms(total) = 0.44377E+01    rms(broyden)= 0.44376E+01
  rms(prec ) = 0.54869E+01
  weight for this iteration     100.00

 eigenvalues of (default mixing * dielectric matrix)
  average eigenvalue GAMMA=   0.2114
  0.2114

 Free energy of the ion-electron system (eV)
  ---------------------------------------------------
  alpha Z        PSCENC =        67.66360410
  Ewald energy   TEWEN  =     -1789.19724323
  -Hartree energ DENC   =      -559.74240815
  -exchange      EXHF   =         0.00000000
  -V(xc)+E(xc)   XCENC  =      -484.42865123
  PAW double counting   =      2530.35902132    -1997.34890868
  entropy T*S    EENTRO =        -0.00667156
  eigenvalues    EBANDS =       -93.91583431
  atomic energy  EATOM  =      2270.25976610
  Solvation  Ediel_sol  =         0.00000000
  ---------------------------------------------------
  free energy    TOTEN  =       -56.35732563 eV

  energy without entropy =      -56.35065407  energy(sigma->0) =      -56.35510178


--------------------------------------------------------------------------------------------------------




--------------------------------------- Iteration      1(   7)  ---------------------------------------


    POTLOK:  cpu time    0.1801: real time    0.1806
    SETDIJ:  cpu time    0.0174: real time    0.0174
     EDDAV:  cpu time    1.6019: real time    1.6057
       DOS:  cpu time    0.0022: real time    0.0023
    CHARGE:  cpu time    0.1294: real time    0.1297
    MIXING:  cpu time    0.0030: real time    0.0030
    --------------------------------------------
      LOOP:  cpu time    1.9341: real time    1.9388

 eigenvalue-minimisations  :  1590
 total energy-change (2. order) : 0.1108076E+02  (-0.5821815E+01)
 number of electron      48.0000008 magnetization      -0.0050118
 augmentation part        7.6571384 magnetization       0.0029395

 Broyden mixing:
  rms(total) = 0.74288E+00    rms(broyden)= 0.74277E+00
  rms(prec ) = 0.80151E+00
  weight for this iteration     100.00

 eigenvalues of (default mixing * dielectric matrix)
  average eigenvalue GAMMA=   0.5174
  0.7404  0.2944

 Free energy of the ion-electron system (eV)
  ---------------------------------------------------
  alpha Z        PSCENC =        67.66360410
  Ewald energy   TEWEN  =     -1789.19724323
  -Hartree energ DENC   =      -604.01388799
  -exchange      EXHF   =         0.00000000
  -V(xc)+E(xc)   XCENC  =      -485.23528266
  PAW double counting   =      2681.12680493    -2154.04859978
  entropy T*S    EENTRO =        -0.01623209
  eigenvalues    EBANDS =       -31.81549400
  atomic energy  EATOM  =      2270.25976610
  Solvation  Ediel_sol  =         0.00000000
  ---------------------------------------------------
  free energy    TOTEN  =       -45.27656462 eV

  energy without entropy =      -45.26033253  energy(sigma->0) =      -45.27115392


--------------------------------------------------------------------------------------------------------




--------------------------------------- Iteration      1(   8)  ---------------------------------------


    POTLOK:  cpu time    0.1444: real time    0.1448
    SETDIJ:  cpu time    0.0143: real time    0.0144
     EDDAV:  cpu time    1.6243: real time    1.6282
       DOS:  cpu time    0.0020: real time    0.0020
    CHARGE:  cpu time    0.1375: real time    0.1378
    MIXING:  cpu time    0.0030: real time    0.0030
    --------------------------------------------
      LOOP:  cpu time    1.9255: real time    1.9302

 eigenvalue-minimisations  :  1664
 total energy-change (2. order) :-0.5819355E+00  (-0.6800158E+00)
 number of electron      48.0000008 magnetization       0.0125015
 augmentation part        6.6985357 magnetization       0.0098709

 Broyden mixing:
  rms(total) = 0.46031E+00    rms(broyden)= 0.46027E+00
  rms(prec ) = 0.55898E+00
  weight for this iteration     100.00

 eigenvalues of (default mixing * dielectric matrix)
  average eigenvalue GAMMA=   0.7984
  1.5256  0.3437  0.5258

 Free energy of the ion-electron system (eV)
  ---------------------------------------------------
  alpha Z        PSCENC =        67.66360410
  Ewald energy   TEWEN  =     -1789.19724323
  -Hartree energ DENC   =      -609.80755251
  -exchange      EXHF   =         0.00000000
  -V(xc)+E(xc)   XCENC  =      -482.54373515
  PAW double counting   =      2753.84779337    -2229.63650927
  entropy T*S    EENTRO =        -0.00725374
  eigenvalues    EBANDS =       -26.43736985
  atomic energy  EATOM  =      2270.25976610
  Solvation  Ediel_sol  =         0.00000000
  ---------------------------------------------------
  free energy    TOTEN  =       -45.85850016 eV

  energy without entropy =      -45.85124642  energy(sigma->0) =      -45.85608225


--------------------------------------------------------------------------------------------------------




--------------------------------------- Iteration      1(   9)  ---------------------------------------


    POTLOK:  cpu time    0.1693: real time    0.1697
    SETDIJ:  cpu time    0.0155: real time    0.0155
     EDDAV:  cpu time    1.7243: real time    1.7284
       DOS:  cpu time    0.0022: real time    0.0022
    CHARGE:  cpu time    0.1330: real time    0.1334
    MIXING:  cpu time    0.0031: real time    0.0031
    --------------------------------------------
      LOOP:  cpu time    2.0473: real time    2.0523

 eigenvalue-minimisations  :  1752
 total energy-change (2. order) :-0.1570302E+00  (-0.2489368E+00)
 number of electron      48.0000008 magnetization       0.0157459
 augmentation part        6.8202513 magnetization       0.0223520

 Broyden mixing:
  rms(total) = 0.54305E+00    rms(broyden)= 0.54303E+00
  rms(prec ) = 0.70036E+00
  weight for this iteration     100.00

 eigenvalues of (default mixing * dielectric matrix)
  average eigenvalue GAMMA=   0.7834
  1.9443  0.5487  0.3356  0.3050

 Free energy of the ion-electron system (eV)
  ---------------------------------------------------
  alpha Z        PSCENC =        67.66360410
  Ewald energy   TEWEN  =     -1789.19724323
  -Hartree energ DENC   =      -606.18375367
  -exchange      EXHF   =         0.00000000
  -V(xc)+E(xc)   XCENC  =      -480.53325816
  PAW double counting   =      2846.91176900    -2324.75475496
  entropy T*S    EENTRO =        -0.00448356
  eigenvalues    EBANDS =       -30.17717600
  atomic energy  EATOM  =      2270.25976610
  Solvation  Ediel_sol  =         0.00000000
  ---------------------------------------------------
  free energy    TOTEN  =       -46.01553036 eV

  energy without entropy =      -46.01104680  energy(sigma->0) =      -46.01403584


--------------------------------------------------------------------------------------------------------




--------------------------------------- Iteration      1(  10)  ---------------------------------------


    POTLOK:  cpu time    0.1690: real time    0.1695
    SETDIJ:  cpu time    0.0165: real time    0.0165
     EDDAV:  cpu time    1.6480: real time    1.6519
       DOS:  cpu time    0.0021: real time    0.0021
    CHARGE:  cpu time    0.1356: real time    0.1359
    MIXING:  cpu time    0.0034: real time    0.0034
    --------------------------------------------
      LOOP:  cpu time    1.9746: real time    1.9793

 eigenvalue-minimisations  :  1664
 total energy-change (2. order) : 0.1918312E+00  (-0.8697982E-01)
 number of electron      48.0000008 magnetization       0.0007748
 augmentation part        6.9354552 magnetization       0.0297185

 Broyden mixing:
  rms(total) = 0.20193E+00    rms(broyden)= 0.20192E+00
  rms(prec ) = 0.22505E+00
  weight for this iteration     100.00

 eigenvalues of (default mixing * dielectric matrix)
  average eigenvalue GAMMA=   0.7731
  2.0161  0.5934  0.5934  0.3162  0.3462

 Free energy of the ion-electron system (eV)
  ---------------------------------------------------
  alpha Z        PSCENC =        67.66360410
  Ewald energy   TEWEN  =     -1789.19724323
  -Hartree energ DENC   =      -603.52657721
  -exchange      EXHF   =         0.00000000
  -V(xc)+E(xc)   XCENC  =      -479.68391688
  PAW double counting   =      2903.51292391    -2382.51606972
  entropy T*S    EENTRO =        -0.00583116
  eigenvalues    EBANDS =       -32.33035511
  atomic energy  EATOM  =      2270.25976610
  Solvation  Ediel_sol  =         0.00000000
  ---------------------------------------------------
  free energy    TOTEN  =       -45.82369919 eV

  energy without entropy =      -45.81786803  energy(sigma->0) =      -45.82175547


--------------------------------------------------------------------------------------------------------




--------------------------------------- Iteration      1(  11)  ---------------------------------------


    POTLOK:  cpu time    0.1694: real time    0.1699
    SETDIJ:  cpu time    0.0147: real time    0.0147
     EDDAV:  cpu time    1.6121: real time    1.6159
       DOS:  cpu time    0.0022: real time    0.0022
    CHARGE:  cpu time    0.1350: real time    0.1353
    MIXING:  cpu time    0.0034: real time    0.0034
    --------------------------------------------
      LOOP:  cpu time    1.9367: real time    1.9414

 eigenvalue-minimisations  :  1600
 total energy-change (2. order) :-0.2841203E-01  (-0.2130111E-01)
 number of electron      48.0000008 magnetization       0.0043311
 augmentation part        6.9965776 magnetization      -0.0031905

 Broyden mixing:
  rms(total) = 0.15040E+00    rms(broyden)= 0.15040E+00
  rms(prec ) = 0.16303E+00
  weight for this iteration     100.00

 eigenvalues of (default mixing * dielectric matrix)
  average eigenvalue GAMMA=   0.7445
  2.0643  0.6836  0.6836  0.3890  0.3233  0.3233

 Free energy of the ion-electron system (eV)
  ---------------------------------------------------
  alpha Z        PSCENC =        67.66360410
  Ewald energy   TEWEN  =     -1789.19724323
  -Hartree energ DENC   =      -602.75510741
  -exchange      EXHF   =         0.00000000
  -V(xc)+E(xc)   XCENC  =      -479.87416441
  PAW double counting   =      2915.51561110    -2394.77555423
  entropy T*S    EENTRO =        -0.00639291
  eigenvalues    EBANDS =       -32.68263034
  atomic energy  EATOM  =      2270.25976610
  Solvation  Ediel_sol  =         0.00000000
  ---------------------------------------------------
  free energy    TOTEN  =       -45.85211122 eV

  energy without entropy =      -45.84571831  energy(sigma->0) =      -45.84998025


--------------------------------------------------------------------------------------------------------




--------------------------------------- Iteration      1(  12)  ---------------------------------------


    POTLOK:  cpu time    0.1703: real time    0.1707
    SETDIJ:  cpu time    0.0173: real time    0.0174
     EDDAV:  cpu time    1.6245: real time    1.6283
       DOS:  cpu time    0.0021: real time    0.0021
    CHARGE:  cpu time    0.1364: real time    0.1367
    MIXING:  cpu time    0.0035: real time    0.0035
    --------------------------------------------
      LOOP:  cpu time    1.9541: real time    1.9588

 eigenvalue-minimisations  :  1632
 total energy-change (2. order) :-0.1123584E-01  (-0.5569712E-02)
 number of electron      48.0000008 magnetization       0.0060196
 augmentation part        7.0258683 magnetization       0.0005257

 Broyden mixing:
  rms(total) = 0.80629E-01    rms(broyden)= 0.80626E-01
  rms(prec ) = 0.85509E-01
  weight for this iteration     100.00

 eigenvalues of (default mixing * dielectric matrix)
  average eigenvalue GAMMA=   0.8526
  2.1701  1.5097  0.6511  0.6511  0.3300  0.3300  0.3262

 Free energy of the ion-electron system (eV)
  ---------------------------------------------------
  alpha Z        PSCENC =        67.66360410
  Ewald energy   TEWEN  =     -1789.19724323
  -Hartree energ DENC   =      -602.30722495
  -exchange      EXHF   =         0.00000000
  -V(xc)+E(xc)   XCENC  =      -480.11481525
  PAW double counting   =      2924.28365242    -2403.74147536
  entropy T*S    EENTRO =        -0.00703962
  eigenvalues    EBANDS =       -32.70257126
  atomic energy  EATOM  =      2270.25976610
  Solvation  Ediel_sol  =         0.00000000
  ---------------------------------------------------
  free energy    TOTEN  =       -45.86334706 eV

  energy without entropy =      -45.85630744  energy(sigma->0) =      -45.86100052


--------------------------------------------------------------------------------------------------------




--------------------------------------- Iteration      1(  13)  ---------------------------------------


    POTLOK:  cpu time    0.1739: real time    0.1745
    SETDIJ:  cpu time    0.0175: real time    0.0176
     EDDAV:  cpu time    1.5882: real time    1.5920
       DOS:  cpu time    0.0023: real time    0.0023
    CHARGE:  cpu time    0.1339: real time    0.1342
    MIXING:  cpu time    0.0042: real time    0.0042
    --------------------------------------------
      LOOP:  cpu time    1.9200: real time    1.9248

 eigenvalue-minimisations  :  1576
 total energy-change (2. order) :-0.4221303E-02  (-0.2432839E-02)
 number of electron      48.0000008 magnetization       0.0007824
 augmentation part        7.0213060 magnetization       0.0044917

 Broyden mixing:
  rms(total) = 0.25268E-01    rms(broyden)= 0.25265E-01
  rms(prec ) = 0.32731E-01
  weight for this iteration     100.00

 eigenvalues of (default mixing * dielectric matrix)
  average eigenvalue GAMMA=   0.8550
  2.3519  1.5108  0.7225  0.7225  0.4972  0.3877  0.3236  0.3236

 Free energy of the ion-electron system (eV)
  ---------------------------------------------------
  alpha Z        PSCENC =        67.66360410
  Ewald energy   TEWEN  =     -1789.19724323
  -Hartree energ DENC   =      -602.32252562
  -exchange      EXHF   =         0.00000000
  -V(xc)+E(xc)   XCENC  =      -480.38953504
  PAW double counting   =      2929.66033077    -2409.24756749
  entropy T*S    EENTRO =        -0.00724757
  eigenvalues    EBANDS =       -32.28715038
  atomic energy  EATOM  =      2270.25976610
  Solvation  Ediel_sol  =         0.00000000
  ---------------------------------------------------
  free energy    TOTEN  =       -45.86756836 eV

  energy without entropy =      -45.86032080  energy(sigma->0) =      -45.86515251


--------------------------------------------------------------------------------------------------------




--------------------------------------- Iteration      1(  14)  ---------------------------------------


    POTLOK:  cpu time    0.1712: real time    0.1717
    SETDIJ:  cpu time    0.0168: real time    0.0169
     EDDAV:  cpu time    1.6272: real time    1.6310
       DOS:  cpu time    0.0022: real time    0.0022
    CHARGE:  cpu time    0.1359: real time    0.1362
    MIXING:  cpu time    0.0042: real time    0.0042
    --------------------------------------------
      LOOP:  cpu time    1.9575: real time    1.9622

 eigenvalue-minimisations  :  1648
 total energy-change (2. order) :-0.2344474E-03  (-0.6741562E-03)
 number of electron      48.0000008 magnetization       0.0000923
 augmentation part        7.0136061 magnetization      -0.0017411

 Broyden mixing:
  rms(total) = 0.21404E-01    rms(broyden)= 0.21403E-01
  rms(prec ) = 0.27628E-01
  weight for this iteration     100.00

 eigenvalues of (default mixing * dielectric matrix)
  average eigenvalue GAMMA=   0.8282
  2.4143  1.5570  0.8097  0.7830  0.5631  0.3552  0.3185  0.3264  0.3264

 Free energy of the ion-electron system (eV)
  ---------------------------------------------------
  alpha Z        PSCENC =        67.66360410
  Ewald energy   TEWEN  =     -1789.19724323
  -Hartree energ DENC   =      -602.42145462
  -exchange      EXHF   =         0.00000000
  -V(xc)+E(xc)   XCENC  =      -480.40073517
  PAW double counting   =      2931.49350774    -2411.13098826
  entropy T*S    EENTRO =        -0.00717056
  eigenvalues    EBANDS =       -32.12708893
  atomic energy  EATOM  =      2270.25976610
  Solvation  Ediel_sol  =         0.00000000
  ---------------------------------------------------
  free energy    TOTEN  =       -45.86780281 eV

  energy without entropy =      -45.86063226  energy(sigma->0) =      -45.86541263


--------------------------------------------------------------------------------------------------------




--------------------------------------- Iteration      1(  15)  ---------------------------------------


    POTLOK:  cpu time    0.1682: real time    0.1687
    SETDIJ:  cpu time    0.0156: real time    0.0156
     EDDAV:  cpu time    1.6530: real time    1.6569
       DOS:  cpu time    0.0023: real time    0.0023
    CHARGE:  cpu time    0.1347: real time    0.1350
    MIXING:  cpu time    0.0043: real time    0.0043
    --------------------------------------------
      LOOP:  cpu time    1.9780: real time    1.9829

 eigenvalue-minimisations  :  1672
 total energy-change (2. order) : 0.1353101E-03  (-0.1719345E-03)
 number of electron      48.0000008 magnetization       0.0004874
 augmentation part        7.0087491 magnetization      -0.0015214

 Broyden mixing:
  rms(total) = 0.62510E-02    rms(broyden)= 0.62504E-02
  rms(prec ) = 0.78535E-02
  weight for this iteration     100.00

 eigenvalues of (default mixing * dielectric matrix)
  average eigenvalue GAMMA=   0.8523
  2.3688  1.7822  1.0211  0.8077  0.6473  0.5313  0.3975  0.3189  0.3189  0.3290

 Free energy of the ion-electron system (eV)
  ---------------------------------------------------
  alpha Z        PSCENC =        67.66360410
  Ewald energy   TEWEN  =     -1789.19724323
  -Hartree energ DENC   =      -602.49810768
  -exchange      EXHF   =         0.00000000
  -V(xc)+E(xc)   XCENC  =      -480.40660286
  PAW double counting   =      2932.14694668    -2411.80026017
  entropy T*S    EENTRO =        -0.00713975
  eigenvalues    EBANDS =       -32.02863069
  atomic energy  EATOM  =      2270.25976610
  Solvation  Ediel_sol  =         0.00000000
  ---------------------------------------------------
  free energy    TOTEN  =       -45.86766750 eV

  energy without entropy =      -45.86052775  energy(sigma->0) =      -45.86528758


--------------------------------------------------------------------------------------------------------




--------------------------------------- Iteration      1(  16)  ---------------------------------------


    POTLOK:  cpu time    0.1620: real time    0.1625
    SETDIJ:  cpu time    0.0152: real time    0.0152
     EDDAV:  cpu time    1.5432: real time    1.5469
       DOS:  cpu time    0.0022: real time    0.0022
    CHARGE:  cpu time    0.1322: real time    0.1325
    MIXING:  cpu time    0.0045: real time    0.0045
    --------------------------------------------
      LOOP:  cpu time    1.8593: real time    1.8638

 eigenvalue-minimisations  :  1632
 total energy-change (2. order) :-0.4057639E-04  (-0.4913300E-04)
 number of electron      48.0000008 magnetization       0.0006344
 augmentation part        7.0063097 magnetization       0.0003683

 Broyden mixing:
  rms(total) = 0.43515E-02    rms(broyden)= 0.43512E-02
  rms(prec ) = 0.60895E-02
  weight for this iteration     100.00

 eigenvalues of (default mixing * dielectric matrix)
  average eigenvalue GAMMA=   0.8663
  2.3497  1.8558  1.2571  0.7960  0.7960  0.5511  0.5511  0.3916  0.3349  0.3232
  0.3232

 Free energy of the ion-electron system (eV)
  ---------------------------------------------------
  alpha Z        PSCENC =        67.66360410
  Ewald energy   TEWEN  =     -1789.19724323
  -Hartree energ DENC   =      -602.57086045
  -exchange      EXHF   =         0.00000000
  -V(xc)+E(xc)   XCENC  =      -480.41806517
  PAW double counting   =      2932.41691695    -2412.06957094
  entropy T*S    EENTRO =        -0.00714162
  eigenvalues    EBANDS =       -31.94511382
  atomic energy  EATOM  =      2270.25976610
  Solvation  Ediel_sol  =         0.00000000
  ---------------------------------------------------
  free energy    TOTEN  =       -45.86770808 eV

  energy without entropy =      -45.86056646  energy(sigma->0) =      -45.86532754


--------------------------------------------------------------------------------------------------------




--------------------------------------- Iteration      1(  17)  ---------------------------------------


    POTLOK:  cpu time    0.1607: real time    0.1612
    SETDIJ:  cpu time    0.0158: real time    0.0158
     EDDAV:  cpu time    1.5382: real time    1.5419
       DOS:  cpu time    0.0022: real time    0.0022
    CHARGE:  cpu time    0.1341: real time    0.1345
    MIXING:  cpu time    0.0049: real time    0.0049
    --------------------------------------------
      LOOP:  cpu time    1.8559: real time    1.8605

 eigenvalue-minimisations  :  1584
 total energy-change (2. order) : 0.9924283E-06  (-0.1024739E-04)
 number of electron      48.0000008 magnetization       0.0004729
 augmentation part        7.0066358 magnetization       0.0004584

 Broyden mixing:
  rms(total) = 0.21814E-02    rms(broyden)= 0.21813E-02
  rms(prec ) = 0.26135E-02
  weight for this iteration     100.00

 eigenvalues of (default mixing * dielectric matrix)
  average eigenvalue GAMMA=   0.8918
  2.2644  2.0742  1.4684  0.8910  0.8910  0.5838  0.5838  0.5656  0.3944  0.3287
  0.3281  0.3281

 Free energy of the ion-electron system (eV)
  ---------------------------------------------------
  alpha Z        PSCENC =        67.66360410
  Ewald energy   TEWEN  =     -1789.19724323
  -Hartree energ DENC   =      -602.59302093
  -exchange      EXHF   =         0.00000000
  -V(xc)+E(xc)   XCENC  =      -480.41458322
  PAW double counting   =      2932.58620158    -2412.23578960
  entropy T*S    EENTRO =        -0.00714157
  eigenvalues    EBANDS =       -31.92950031
  atomic energy  EATOM  =      2270.25976610
  Solvation  Ediel_sol  =         0.00000000
  ---------------------------------------------------
  free energy    TOTEN  =       -45.86770709 eV

  energy without entropy =      -45.86056551  energy(sigma->0) =      -45.86532656


--------------------------------------------------------------------------------------------------------




--------------------------------------- Iteration      1(  18)  ---------------------------------------


    POTLOK:  cpu time    0.1639: real time    0.1644
    SETDIJ:  cpu time    0.0151: real time    0.0151
     EDDAV:  cpu time    1.5383: real time    1.5420
       DOS:  cpu time    0.0022: real time    0.0022
    CHARGE:  cpu time    0.1324: real time    0.1327
    MIXING:  cpu time    0.0050: real time    0.0050
    --------------------------------------------
      LOOP:  cpu time    1.8569: real time    1.8615

 eigenvalue-minimisations  :  1560
 total energy-change (2. order) :-0.6684359E-05  (-0.2450255E-05)
 number of electron      48.0000008 magnetization       0.0002768
 augmentation part        7.0076778 magnetization       0.0002368

 Broyden mixing:
  rms(total) = 0.10893E-02    rms(broyden)= 0.10893E-02
  rms(prec ) = 0.14634E-02
  weight for this iteration     100.00

 eigenvalues of (default mixing * dielectric matrix)
  average eigenvalue GAMMA=   0.9420
  2.4984  1.9867  1.9867  0.9517  0.9517  0.6846  0.6846  0.5590  0.5590  0.3976
  0.3269  0.3269  0.3319

 Free energy of the ion-electron system (eV)
  ---------------------------------------------------
  alpha Z        PSCENC =        67.66360410
  Ewald energy   TEWEN  =     -1789.19724323
  -Hartree energ DENC   =      -602.59792499
  -exchange      EXHF   =         0.00000000
  -V(xc)+E(xc)   XCENC  =      -480.40894151
  PAW double counting   =      2932.75771399    -2412.40473796
  entropy T*S    EENTRO =        -0.00713790
  eigenvalues    EBANDS =       -31.93281237
  atomic energy  EATOM  =      2270.25976610
  Solvation  Ediel_sol  =         0.00000000
  ---------------------------------------------------
  free energy    TOTEN  =       -45.86771377 eV

  energy without entropy =      -45.86057587  energy(sigma->0) =      -45.86533447


--------------------------------------------------------------------------------------------------------




--------------------------------------- Iteration      1(  19)  ---------------------------------------


    POTLOK:  cpu time    0.1633: real time    0.1637
    SETDIJ:  cpu time    0.0155: real time    0.0155
     EDDAV:  cpu time    1.4751: real time    1.4787
       DOS:  cpu time    0.0022: real time    0.0022
    CHARGE:  cpu time    0.1323: real time    0.1326
    MIXING:  cpu time    0.0055: real time    0.0055
    --------------------------------------------
      LOOP:  cpu time    1.7939: real time    1.7982

 eigenvalue-minimisations  :  1464
 total energy-change (2. order) :-0.2125471E-05  (-0.9848417E-06)
 number of electron      48.0000008 magnetization       0.0001326
 augmentation part        7.0085826 magnetization       0.0000112

 Broyden mixing:
  rms(total) = 0.39034E-03    rms(broyden)= 0.39028E-03
  rms(prec ) = 0.55075E-03
  weight for this iteration     100.00

 eigenvalues of (default mixing * dielectric matrix)
  average eigenvalue GAMMA=   0.9460
  2.5832  1.9785  1.9785  1.1508  0.8617  0.8617  0.6529  0.6529  0.5703  0.5703
  0.3978  0.3269  0.3269  0.3320

 Free energy of the ion-electron system (eV)
  ---------------------------------------------------
  alpha Z        PSCENC =        67.66360410
  Ewald energy   TEWEN  =     -1789.19724323
  -Hartree energ DENC   =      -602.59625931
  -exchange      EXHF   =         0.00000000
  -V(xc)+E(xc)   XCENC  =      -480.40431977
  PAW double counting   =      2932.91762256    -2412.56577565
  entropy T*S    EENTRO =        -0.00713836
  eigenvalues    EBANDS =       -31.93797235
  atomic energy  EATOM  =      2270.25976610
  Solvation  Ediel_sol  =         0.00000000
  ---------------------------------------------------
  free energy    TOTEN  =       -45.86771590 eV

  energy without entropy =      -45.86057754  energy(sigma->0) =      -45.86533644


--------------------------------------------------------------------------------------------------------




--------------------------------------- Iteration      1(  20)  ---------------------------------------


    POTLOK:  cpu time    0.1669: real time    0.1674
    SETDIJ:  cpu time    0.0155: real time    0.0156
     EDDAV:  cpu time    0.8902: real time    0.8923
       DOS:  cpu time    0.0021: real time    0.0021
    --------------------------------------------
      LOOP:  cpu time    1.0747: real time    1.0775

 eigenvalue-minimisations  :   720
 total energy-change (2. order) :-0.6769715E-06  (-0.1311458E-06)
 number of electron      48.0000008 magnetization       0.0001326
 augmentation part        7.0085826 magnetization       0.0000112

 Free energy of the ion-electron system (eV)
  ---------------------------------------------------
  alpha Z        PSCENC =        67.66360410
  Ewald energy   TEWEN  =     -1789.19724323
  -Hartree energ DENC   =      -602.60023224
  -exchange      EXHF   =         0.00000000
  -V(xc)+E(xc)   XCENC  =      -480.40427895
  PAW double counting   =      2932.95202310    -2412.60063336
  entropy T*S    EENTRO =        -0.00713670
  eigenvalues    EBANDS =       -31.93358539
  atomic energy  EATOM  =      2270.25976610
  Solvation  Ediel_sol  =         0.00000000
  ---------------------------------------------------
  free energy    TOTEN  =       -45.86771657 eV

  energy without entropy =      -45.86057987  energy(sigma->0) =      -45.86533767


--------------------------------------------------------------------------------------------------------




 average (electrostatic) potential at core
  the test charge radii are     1.0210  1.4024
  (the norm of the test charge is              1.0000)
       1 -47.0467       2 -47.0464       3 -47.0466       4 -47.0467       5 -63.3685
       6 -63.3685       7 -63.3685       8 -63.3685
 
 
 
 E-fermi :   2.8225     XC(G=0):  -8.7840     alpha+bet : -8.1043


 spin component 1

 k-point     1 :       0.0000    0.0000    0.0000
  band No.  band energies     occupation 
      1      -8.1074      1.00000
      2      -7.4265      1.00000
      3      -7.4059      1.00000
      4      -7.1291      1.00000
      5      -0.8540      1.00000
      6      -0.3799      1.00000
      7      -0.3131      1.00000
      8      -0.1728      1.00000
      9      -0.1370      1.00000
     10       0.0589      1.00000
     11       0.0660      1.00000
     12       0.2469      1.00000
     13       0.2618      1.00000
     14       0.2832      1.00000
     15       0.5113      1.00000
     16       0.6644      1.00000
     17       0.7576      1.00000
     18       1.3753      1.00000
     19       1.6178      1.00000
     20       1.8177      1.00000
     21       1.9660      1.00000
     22       2.0867      1.00000
     23       2.9040      0.00615
     24       2.9884     -0.02034
     25       3.0121     -0.01101
     26       3.6394     -0.00000
     27       3.6533     -0.00000
     28       3.9086     -0.00000
     29       4.0558     -0.00000

 k-point     2 :       0.3333    0.0000    0.0000
  band No.  band energies     occupation 
      1      -7.7292      1.00000
      2      -7.2815      1.00000
      3      -7.2091      1.00000
      4      -7.1412      1.00000
      5      -0.7282      1.00000
      6      -0.7099      1.00000
      7      -0.3078      1.00000
      8      -0.1910      1.00000
      9       0.0262      1.00000
     10       0.0549      1.00000
     11       0.1347      1.00000
     12       0.1584      1.00000
     13       0.2393      1.00000
     14       0.2812      1.00000
     15       0.4012      1.00000
     16       0.6995      1.00000
     17       0.7208      1.00000
     18       1.1656      1.00000
     19       1.2083      1.00000
     20       1.6500      1.00000
     21       1.9335      1.00000
     22       1.9858      1.00000
     23       2.0306      1.00000
     24       2.5786      1.00152
     25       2.7001      1.03546
     26       2.8769      0.10677
     27       3.5558     -0.00000
     28       3.8963     -0.00000
     29       3.9215     -0.00000

 k-point     3 :       0.0000    0.5000    0.0000
  band No.  band energies     occupation 
      1      -7.6804      1.00000
      2      -7.6804      1.00000
      3      -7.3804      1.00000
      4      -7.3804      1.00000
      5      -0.7206      1.00000
      6      -0.7206      1.00000
      7      -0.3716      1.00000
      8      -0.3715      1.00000
      9      -0.0735      1.00000
     10      -0.0733      1.00000
     11       0.1018      1.00000
     12       0.1019      1.00000
     13       0.2757      1.00000
     14       0.2758      1.00000
     15       0.2809      1.00000
     16       0.2811      1.00000
     17       1.3171      1.00000
     18       1.3171      1.00000
     19       1.9067      1.00000
     20       1.9068      1.00000
     21       2.3246      1.00000
     22       2.3246      1.00000
     23       3.2157     -0.00000
     24       3.2157     -0.00000
     25       3.5099     -0.00000
     26       3.5099     -0.00000
     27       4.0532     -0.00000
     28       4.0533     -0.00000
     29       4.2383     -0.00000

 k-point     4 :       0.3333    0.5000   -0.0000
  band No.  band energies     occupation 
      1      -7.4798      1.00000
      2      -7.4798      1.00000
      3      -7.1923      1.00000
      4      -7.1923      1.00000
      5      -0.6046      1.00000
      6      -0.6046      1.00000
      7      -0.2600      1.00000
      8      -0.2600      1.00000
      9      -0.1414      1.00000
     10      -0.1413      1.00000
     11       0.1537      1.00000
     12       0.1538      1.00000
     13       0.2139      1.00000
     14       0.2139      1.00000
     15       0.3407      1.00000
     16       0.3408      1.00000
     17       0.6573      1.00000
     18       0.6574      1.00000
     19       1.3084      1.00000
     20       1.3084      1.00000
     21       1.9933      1.00000
     22       1.9933      1.00000
     23       2.6582      1.02112
     24       2.6583      1.02112
     25       2.8446      0.31785
     26       2.8446      0.31779
     27       3.8229     -0.00000
     28       3.8239     -0.00000
     29       4.0002     -0.00000

 k-point     5 :       0.0000    0.0000    0.5000
  band No.  band energies     occupation 
      1      -7.9012      1.00000
      2      -7.8551      1.00000
      3      -7.2084      1.00000
      4      -7.1142      1.00000
      5      -0.6677      1.00000
      6      -0.3000      1.00000
      7      -0.2716      1.00000
      8      -0.1345      1.00000
      9      -0.0799      1.00000
     10       0.0645      1.00000
     11       0.1815      1.00000
     12       0.1841      1.00000
     13       0.2491      1.00000
     14       0.2903      1.00000
     15       0.4140      1.00000
     16       0.4198      1.00000
     17       0.8875      1.00000
     18       1.3286      1.00000
     19       1.3340      1.00000
     20       1.8609      1.00000
     21       1.9356      1.00000
     22       1.9731      1.00000
     23       2.6295      1.00996
     24       2.8189      0.52996
     25       3.1038     -0.00026
     26       3.7726     -0.00000
     27       3.9662     -0.00000
     28       4.0317     -0.00000
     29       4.1590     -0.00000

 k-point     6 :       0.3333    0.0000    0.5000
  band No.  band energies     occupation 
      1      -7.5756      1.00000
      2      -7.5117      1.00000
      3      -7.1917      1.00000
      4      -7.1004      1.00000
      5      -0.5606      1.00000
      6      -0.5139      1.00000
      7      -0.2911      1.00000
      8      -0.2483      1.00000
      9      -0.1633      1.00000
     10       0.0369      1.00000
     11       0.1561      1.00000
     12       0.2306      1.00000
     13       0.2670      1.00000
     14       0.2716      1.00000
     15       0.4785      1.00000
     16       0.5801      1.00000
     17       1.0370      1.00000
     18       1.0432      1.00000
     19       1.2730      1.00000
     20       1.5321      1.00000
     21       1.6913      1.00000
     22       1.7470      1.00000
     23       1.9906      1.00000
     24       2.4414      1.00000
     25       2.7330      1.01042
     26       2.8312      0.42610
     27       3.6240     -0.00000
     28       3.9310     -0.00000
     29       3.9468     -0.00000

 k-point     7 :       0.0000    0.5000    0.5000
  band No.  band energies     occupation 
      1      -7.5926      1.00000
      2      -7.5926      1.00000
      3      -7.4807      1.00000
      4      -7.4807      1.00000
      5      -0.5503      1.00000
      6      -0.5502      1.00000
      7      -0.3171      1.00000
      8      -0.3170      1.00000
      9      -0.0754      1.00000
     10      -0.0753      1.00000
     11       0.1051      1.00000
     12       0.1052      1.00000
     13       0.2845      1.00000
     14       0.2846      1.00000
     15       0.3351      1.00000
     16       0.3351      1.00000
     17       1.0670      1.00000
     18       1.0670      1.00000
     19       1.9060      1.00000
     20       1.9060      1.00000
     21       2.1652      1.00000
     22       2.1652      1.00000
     23       3.0759     -0.00099
     24       3.0759     -0.00099
     25       3.5145     -0.00000
     26       3.5145     -0.00000
     27       3.9048     -0.00000
     28       3.9048     -0.00000
     29       4.2415     -0.00000

 k-point     8 :       0.3333    0.5000    0.5000
  band No.  band energies     occupation 
      1      -7.4046      1.00000
      2      -7.4046      1.00000
      3      -7.2780      1.00000
      4      -7.2780      1.00000
      5      -0.4863      1.00000
      6      -0.4863      1.00000
      7      -0.2411      1.00000
      8      -0.2410      1.00000
      9      -0.1219      1.00000
     10      -0.1219      1.00000
     11       0.0975      1.00000
     12       0.0976      1.00000
     13       0.2018      1.00000
     14       0.2019      1.00000
     15       0.3797      1.00000
     16       0.3798      1.00000
     17       0.7443      1.00000
     18       0.7444      1.00000
     19       1.2983      1.00000
     20       1.2983      1.00000
     21       1.7846      1.00000
     22       1.7846      1.00000
     23       2.4317      1.00000
     24       2.4318      1.00000
     25       3.0263     -0.00705
     26       3.0263     -0.00705
     27       3.7861     -0.00000
     28       3.7862     -0.00000
     29       4.0201     -0.00000

 spin component 2

 k-point     1 :       0.0000    0.0000    0.0000
  band No.  band energies     occupation 
      1      -8.1074      1.00000
      2      -7.4265      1.00000
      3      -7.4059      1.00000
      4      -7.1291      1.00000
      5      -0.8540      1.00000
      6      -0.3799      1.00000
      7      -0.3131      1.00000
      8      -0.1728      1.00000
      9      -0.1371      1.00000
     10       0.0589      1.00000
     11       0.0660      1.00000
     12       0.2468      1.00000
     13       0.2617      1.00000
     14       0.2831      1.00000
     15       0.5113      1.00000
     16       0.6644      1.00000
     17       0.7575      1.00000
     18       1.3754      1.00000
     19       1.6178      1.00000
     20       1.8178      1.00000
     21       1.9660      1.00000
     22       2.0867      1.00000
     23       2.9040      0.00612
     24       2.9885     -0.02033
     25       3.0122     -0.01100
     26       3.6395     -0.00000
     27       3.6533     -0.00000
     28       3.9085     -0.00000
     29       4.0645     -0.00000

 k-point     2 :       0.3333    0.0000    0.0000
  band No.  band energies     occupation 
      1      -7.7291      1.00000
      2      -7.2815      1.00000
      3      -7.2091      1.00000
      4      -7.1411      1.00000
      5      -0.7282      1.00000
      6      -0.7099      1.00000
      7      -0.3078      1.00000
      8      -0.1911      1.00000
      9       0.0261      1.00000
     10       0.0549      1.00000
     11       0.1346      1.00000
     12       0.1583      1.00000
     13       0.2393      1.00000
     14       0.2811      1.00000
     15       0.4011      1.00000
     16       0.6995      1.00000
     17       0.7207      1.00000
     18       1.1656      1.00000
     19       1.2083      1.00000
     20       1.6501      1.00000
     21       1.9335      1.00000
     22       1.9858      1.00000
     23       2.0306      1.00000
     24       2.5786      1.00152
     25       2.7001      1.03546
     26       2.8769      0.10665
     27       3.5559     -0.00000
     28       3.8967     -0.00000
     29       3.9169     -0.00000

 k-point     3 :       0.0000    0.5000    0.0000
  band No.  band energies     occupation 
      1      -7.6803      1.00000
      2      -7.6803      1.00000
      3      -7.3804      1.00000
      4      -7.3803      1.00000
      5      -0.7206      1.00000
      6      -0.7206      1.00000
      7      -0.3716      1.00000
      8      -0.3716      1.00000
      9      -0.0735      1.00000
     10      -0.0734      1.00000
     11       0.1018      1.00000
     12       0.1019      1.00000
     13       0.2757      1.00000
     14       0.2757      1.00000
     15       0.2809      1.00000
     16       0.2810      1.00000
     17       1.3171      1.00000
     18       1.3171      1.00000
     19       1.9068      1.00000
     20       1.9068      1.00000
     21       2.3246      1.00000
     22       2.3246      1.00000
     23       3.2157     -0.00000
     24       3.2157     -0.00000
     25       3.5099     -0.00000
     26       3.5099     -0.00000
     27       4.0532     -0.00000
     28       4.0533     -0.00000
     29       4.2382     -0.00000

 k-point     4 :       0.3333    0.5000   -0.0000
  band No.  band energies     occupation 
      1      -7.4798      1.00000
      2      -7.4797      1.00000
      3      -7.1923      1.00000
      4      -7.1923      1.00000
      5      -0.6046      1.00000
      6      -0.6046      1.00000
      7      -0.2600      1.00000
      8      -0.2600      1.00000
      9      -0.1414      1.00000
     10      -0.1414      1.00000
     11       0.1536      1.00000
     12       0.1537      1.00000
     13       0.2138      1.00000
     14       0.2139      1.00000
     15       0.3407      1.00000
     16       0.3407      1.00000
     17       0.6573      1.00000
     18       0.6573      1.00000
     19       1.3084      1.00000
     20       1.3084      1.00000
     21       1.9933      1.00000
     22       1.9933      1.00000
     23       2.6583      1.02113
     24       2.6583      1.02114
     25       2.8446      0.31775
     26       2.8446      0.31761
     27       3.8230     -0.00000
     28       3.8231     -0.00000
     29       4.0002     -0.00000

 k-point     5 :       0.0000    0.0000    0.5000
  band No.  band energies     occupation 
      1      -7.9011      1.00000
      2      -7.8551      1.00000
      3      -7.2084      1.00000
      4      -7.1142      1.00000
      5      -0.6677      1.00000
      6      -0.3000      1.00000
      7      -0.2716      1.00000
      8      -0.1345      1.00000
      9      -0.0800      1.00000
     10       0.0644      1.00000
     11       0.1814      1.00000
     12       0.1841      1.00000
     13       0.2490      1.00000
     14       0.2903      1.00000
     15       0.4139      1.00000
     16       0.4198      1.00000
     17       0.8875      1.00000
     18       1.3287      1.00000
     19       1.3340      1.00000
     20       1.8610      1.00000
     21       1.9357      1.00000
     22       1.9731      1.00000
     23       2.6295      1.00996
     24       2.8189      0.52985
     25       3.1039     -0.00025
     26       3.7726     -0.00000
     27       3.9659     -0.00000
     28       4.0318     -0.00000
     29       4.1587     -0.00000

 k-point     6 :       0.3333    0.0000    0.5000
  band No.  band energies     occupation 
      1      -7.5755      1.00000
      2      -7.5117      1.00000
      3      -7.1917      1.00000
      4      -7.1004      1.00000
      5      -0.5607      1.00000
      6      -0.5139      1.00000
      7      -0.2911      1.00000
      8      -0.2483      1.00000
      9      -0.1634      1.00000
     10       0.0368      1.00000
     11       0.1560      1.00000
     12       0.2305      1.00000
     13       0.2669      1.00000
     14       0.2715      1.00000
     15       0.4784      1.00000
     16       0.5801      1.00000
     17       1.0370      1.00000
     18       1.0431      1.00000
     19       1.2730      1.00000
     20       1.5321      1.00000
     21       1.6913      1.00000
     22       1.7470      1.00000
     23       1.9907      1.00000
     24       2.4414      1.00000
     25       2.7331      1.01039
     26       2.8313      0.42597
     27       3.6240     -0.00000
     28       3.9290     -0.00000
     29       3.9366     -0.00000

 k-point     7 :       0.0000    0.5000    0.5000
  band No.  band energies     occupation 
      1      -7.5926      1.00000
      2      -7.5925      1.00000
      3      -7.4807      1.00000
      4      -7.4807      1.00000
      5      -0.5503      1.00000
      6      -0.5503      1.00000
      7      -0.3170      1.00000
      8      -0.3170      1.00000
      9      -0.0754      1.00000
     10      -0.0754      1.00000
     11       0.1051      1.00000
     12       0.1051      1.00000
     13       0.2844      1.00000
     14       0.2845      1.00000
     15       0.3350      1.00000
     16       0.3351      1.00000
     17       1.0670      1.00000
     18       1.0670      1.00000
     19       1.9060      1.00000
     20       1.9060      1.00000
     21       2.1652      1.00000
     22       2.1652      1.00000
     23       3.0759     -0.00099
     24       3.0759     -0.00099
     25       3.5145     -0.00000
     26       3.5145     -0.00000
     27       3.9048     -0.00000
     28       3.9048     -0.00000
     29       4.2415     -0.00000

 k-point     8 :       0.3333    0.5000    0.5000
  band No.  band energies     occupation 
      1      -7.4046      1.00000
      2      -7.4046      1.00000
      3      -7.2780      1.00000
      4      -7.2780      1.00000
      5      -0.4863      1.00000
      6      -0.4863      1.00000
      7      -0.2411      1.00000
      8      -0.2411      1.00000
      9      -0.1220      1.00000
     10      -0.1220      1.00000
     11       0.0974      1.00000
     12       0.0975      1.00000
     13       0.2018      1.00000
     14       0.2018      1.00000
     15       0.3797      1.00000
     16       0.3797      1.00000
     17       0.7443      1.00000
     18       0.7443      1.00000
     19       1.2983      1.00000
     20       1.2983      1.00000
     21       1.7846      1.00000
     22       1.7846      1.00000
     23       2.4317      1.00000
     24       2.4318      1.00000
     25       3.0263     -0.00705
     26       3.0263     -0.00704
     27       3.7861     -0.00000
     28       3.7862     -0.00000
     29       4.0132     -0.00000


--------------------------------------------------------------------------------------------------------


 soft charge-density along one line, spin component           1
         0         1         2         3         4         5         6         7         8         9
 total charge-density along one line
 
 soft charge-density along one line, spin component           2
         0         1         2         3         4         5         6         7         8         9
 total charge-density along one line
 
 pseudopotential strength for first ion, spin component:           1
 -8.430  -0.000   0.000   0.039   0.000  -8.946  -0.000   0.000
 -0.000  -8.427  -0.000  -0.000   0.043  -0.000  -8.944  -0.000
  0.000  -0.000  -8.363  -0.000   0.001   0.000  -0.000  -8.880
  0.039  -0.000  -0.000  -8.449  -0.000   0.039  -0.000  -0.000
  0.000   0.043   0.001  -0.000  -8.433   0.000   0.042   0.001
 -8.946  -0.000   0.000   0.039   0.000  -9.438  -0.000   0.000
 -0.000  -8.944  -0.000  -0.000   0.042  -0.000  -9.435  -0.000
  0.000  -0.000  -8.880  -0.000   0.001   0.000  -0.000  -9.372
  0.039  -0.000  -0.000  -8.965  -0.000   0.038  -0.000  -0.000
  0.000   0.042   0.001  -0.000  -8.949   0.000   0.042   0.001
  0.000   0.001  -0.005   0.000   0.002   0.000   0.001  -0.005
  0.000   0.002  -0.009   0.000   0.003   0.000   0.002  -0.009
 -0.000   0.007  -0.001   0.000   0.008  -0.000   0.007  -0.001
  0.000   0.001  -0.011  -0.000   0.000   0.000   0.001  -0.011
  0.010   0.000  -0.000   0.007  -0.000   0.010   0.000  -0.000
 -0.000   0.008  -0.001   0.000   0.009  -0.000   0.007  -0.001
  0.000   0.001  -0.013  -0.000   0.000   0.000   0.001  -0.013
  0.011   0.000  -0.000   0.008  -0.000   0.011   0.000  -0.000
 pseudopotential strength for first ion, spin component:           2
 -6.199  -0.000   0.000  -0.063  -0.000  -6.758  -0.000   0.000
 -0.000  -6.131   0.001  -0.000  -0.071  -0.000  -6.690   0.000
  0.000   0.001  -6.224  -0.000   0.017   0.000   0.000  -6.782
 -0.063  -0.000  -0.000  -6.123  -0.000  -0.063  -0.000  -0.000
 -0.000  -0.071   0.017  -0.000  -6.195  -0.000  -0.071   0.017
 -6.758  -0.000   0.000  -0.063  -0.000  -7.291  -0.000   0.000
 -0.000  -6.690   0.000  -0.000  -0.071  -0.000  -7.224   0.000
  0.000   0.000  -6.782  -0.000   0.017   0.000   0.000  -7.315
 -0.063  -0.000  -0.000  -6.682  -0.000  -0.063  -0.000  -0.000
 -0.000  -0.071   0.017  -0.000  -6.753  -0.000  -0.070   0.017
  0.000  -0.002  -0.003   0.000   0.002   0.000  -0.002  -0.003
  0.000  -0.004  -0.006   0.000   0.005   0.000  -0.004  -0.005
 -0.000   0.001  -0.001  -0.000  -0.005  -0.000   0.001  -0.001
 -0.000   0.000   0.012   0.000  -0.001  -0.000   0.000   0.012
 -0.003  -0.000   0.000  -0.000  -0.000  -0.003  -0.000   0.000
 -0.000   0.000  -0.001  -0.000  -0.007  -0.000   0.000  -0.001
 -0.000   0.000   0.016   0.000  -0.001  -0.000   0.000   0.016
 -0.005  -0.000   0.000  -0.001   0.000  -0.005  -0.000   0.000
 total augmentation occupancy for first ion, spin component:           1
  2.649   0.000  -0.000  -0.025   0.000  -1.222  -0.000   0.000  -0.075  -0.000  -0.000   0.000   0.000   0.000  -0.119  -0.000
  0.000   2.686  -0.013   0.000  -0.062  -0.000  -1.179   0.010  -0.000  -0.055  -0.008  -0.001  -0.079  -0.008   0.000   0.004
 -0.000  -0.013   2.804   0.000   0.142   0.000   0.010  -1.390  -0.000  -0.099   0.033  -0.013  -0.020   0.192  -0.000  -0.000
 -0.025   0.000   0.000   2.788   0.000  -0.077  -0.000  -0.000  -1.249  -0.000  -0.000   0.000   0.000   0.000  -0.092   0.000
  0.000  -0.062   0.142   0.000   2.727  -0.000  -0.054  -0.100  -0.000  -1.279  -0.009   0.002  -0.119   0.010   0.000   0.005
 -1.222  -0.000   0.000  -0.077  -0.000   0.940  -0.000   0.000   0.213   0.000   0.000  -0.000  -0.000  -0.000   0.175   0.000
 -0.000  -1.179   0.010  -0.000  -0.054  -0.000   0.797  -0.008   0.000   0.207   0.010   0.000   0.119   0.004  -0.000  -0.006
  0.000   0.010  -1.390  -0.000  -0.100   0.000  -0.008   1.177   0.000   0.064  -0.007   0.004   0.010  -0.250   0.000  -0.000
 -0.075  -0.000  -0.000  -1.249  -0.000   0.213   0.000   0.000   0.827   0.000   0.000  -0.000  -0.000  -0.000   0.129  -0.000
 -0.000  -0.055  -0.099  -0.000  -1.279   0.000   0.207   0.064   0.000   0.974   0.005  -0.000   0.176  -0.005  -0.000  -0.008
 -0.000  -0.008   0.033  -0.000  -0.009   0.000   0.010  -0.007   0.000   0.005   1.581  -0.097  -0.001  -0.000  -0.000   0.000
  0.000  -0.001  -0.013   0.000   0.002  -0.000   0.000   0.004  -0.000  -0.000  -0.097   0.016  -0.000   0.001   0.000  -0.000
  0.000  -0.079  -0.020   0.000  -0.119  -0.000   0.119   0.010  -0.000   0.176  -0.001  -0.000   0.113   0.000   0.000  -0.005
  0.000  -0.008   0.192   0.000   0.010  -0.000   0.004  -0.250  -0.000  -0.005  -0.000   0.001   0.000   0.125   0.000  -0.000
 -0.119   0.000  -0.000  -0.092   0.000   0.175  -0.000   0.000   0.129  -0.000  -0.000   0.000   0.000   0.000   0.112  -0.000
 -0.000   0.004  -0.000   0.000   0.005   0.000  -0.006  -0.000  -0.000  -0.008   0.000  -0.000  -0.005  -0.000  -0.000   0.000
  0.000   0.001  -0.007  -0.000  -0.000  -0.000  -0.000   0.010   0.000   0.000  -0.000   0.000  -0.000  -0.005   0.000   0.000
  0.006   0.000   0.000   0.004  -0.000  -0.008   0.000   0.000  -0.006   0.000  -0.000  -0.000   0.000  -0.000  -0.005   0.000
 total augmentation occupancy for first ion, spin component:           2
  2.412   0.000  -0.000  -0.132   0.000  -0.836  -0.000   0.000   0.079  -0.000  -0.000   0.000   0.000  -0.000  -0.025  -0.000
  0.000   2.527  -0.017   0.000  -0.170  -0.000  -0.927   0.015  -0.000   0.101  -0.006  -0.001  -0.005  -0.009  -0.000  -0.001
 -0.000  -0.017   2.484   0.000   0.139   0.000   0.017  -0.936  -0.000  -0.103  -0.006  -0.011  -0.019   0.094  -0.000  -0.000
 -0.132   0.000   0.000   2.632   0.000   0.081  -0.000  -0.000  -1.001  -0.000  -0.000   0.000  -0.000   0.000  -0.027   0.000
  0.000  -0.170   0.139   0.000   2.492   0.000   0.097  -0.100  -0.000  -0.911  -0.009   0.002  -0.025   0.004   0.000  -0.001
 -0.836  -0.000   0.000   0.081   0.000   0.141   0.000  -0.000  -0.108  -0.000   0.000  -0.000  -0.000   0.000  -0.021   0.000
 -0.000  -0.927   0.017  -0.000   0.097   0.000   0.254  -0.015   0.000  -0.119  -0.004   0.001  -0.020   0.007   0.000   0.001
  0.000   0.015  -0.936  -0.000  -0.100  -0.000  -0.015   0.196   0.000   0.080  -0.003   0.003   0.017  -0.017   0.000  -0.000
  0.079  -0.000  -0.000  -1.001  -0.000  -0.108   0.000   0.000   0.321   0.000   0.000  -0.000  -0.000  -0.000  -0.007  -0.000
 -0.000   0.101  -0.103  -0.000  -0.911  -0.000  -0.119   0.080   0.000   0.215   0.004  -0.001  -0.020  -0.005  -0.000   0.002
 -0.000  -0.006  -0.006  -0.000  -0.009   0.000  -0.004  -0.003   0.000   0.004  -0.099   0.085   0.003   0.008  -0.000  -0.000
  0.000  -0.001  -0.011   0.000   0.002  -0.000   0.001   0.003  -0.000  -0.001   0.085  -0.007  -0.000   0.001  -0.000   0.000
  0.000  -0.005  -0.019  -0.000  -0.025  -0.000  -0.020   0.017  -0.000  -0.020   0.003  -0.000   0.005  -0.003   0.000   0.001
 -0.000  -0.009   0.094   0.000   0.004   0.000   0.007  -0.017  -0.000  -0.005   0.008   0.001  -0.003   0.022  -0.000   0.000
 -0.025  -0.000  -0.000  -0.027   0.000  -0.021   0.000   0.000  -0.007  -0.000  -0.000  -0.000   0.000  -0.000   0.007  -0.000
 -0.000  -0.001  -0.000   0.000  -0.001   0.000   0.001  -0.000  -0.000   0.002  -0.000   0.000   0.001   0.000  -0.000  -0.000
  0.000   0.001  -0.000  -0.000  -0.000  -0.000  -0.000  -0.001   0.000   0.000   0.000  -0.000   0.000   0.000  -0.000   0.000
  0.000   0.000   0.000  -0.001  -0.000   0.001  -0.000  -0.000   0.001  -0.000  -0.000  -0.000  -0.000  -0.000   0.000   0.000


------------------------ aborting loop because EDIFF is reached ----------------------------------------


 


 total charge     
 
# of ion       s       p       d       tot
------------------------------------------
    1        0.308   0.199   4.956   5.463
    2        0.308   0.199   4.956   5.463
    3        0.308   0.199   4.956   5.463
    4        0.308   0.199   4.956   5.463
    5        1.679   2.231   0.062   3.973
    6        1.679   2.231   0.062   3.973
    7        1.679   2.231   0.062   3.973
    8        1.679   2.231   0.062   3.973
--------------------------------------------------
tot          7.950   9.722  20.072  37.744
 


 magnetization (x)
 
# of ion       s       p       d       tot
------------------------------------------
    1        0.046   0.022   3.724   3.792
    2        0.046   0.022   3.724   3.792
    3       -0.046  -0.022  -3.724  -3.792
    4       -0.046  -0.022  -3.724  -3.792
    5       -0.002  -0.232   0.016  -0.217
    6       -0.002  -0.232   0.016  -0.217
    7        0.002   0.232  -0.016   0.217
    8        0.002   0.232  -0.016   0.217
--------------------------------------------------
tot         -0.000   0.000  -0.000   0.000
 
    CHARGE:  cpu time    0.1308: real time    0.1311
    FORLOC:  cpu time    0.0081: real time    0.0081
    FORNL :  cpu time    0.4288: real time    0.4298
    STRESS:  cpu time    0.5443: real time    0.5455
    FORCOR:  cpu time    0.1703: real time    0.1707
    FORHAR:  cpu time    0.0215: real time    0.0215
    MIXING:  cpu time    0.0054: real time    0.0054
    OFIELD:  cpu time    0.0000: real time    0.0000

  FORCE on cell =-STRESS in cart. coord.  units (eV):
  Direction    XX          YY          ZZ          XY          YZ          ZX
  --------------------------------------------------------------------------------------
  Alpha Z    67.66360    67.66360    67.66360
  Ewald    -596.40001  -596.40006  -596.40013     0.00002     0.00002     0.00001
  Hartree   199.83829   201.33140   201.44590    -0.00001    -0.16199     0.00003
  E(xc)    -227.10158  -227.40748  -227.50175     0.00001     0.13333    -0.00000
  Local     -98.73999  -103.44501  -104.41216     0.00002     1.36774    -0.00004
  n-local   218.40446   219.46254   219.96173    -0.00000    -0.70580    -0.00001
  augment    16.36171    16.71275    16.55606     0.00001     0.22149    -0.00001
  Kinetic   418.30539   421.98412   423.12477    -0.00001    -1.61333     0.00003
  Fock        0.00000     0.00000     0.00000     0.00000     0.00000     0.00000
  -------------------------------------------------------------------------------------
  Total      -1.66813    -0.09813     0.43801     0.00003    -0.75853     0.00001
  in kB     -10.36565    -0.60976     2.72178     0.00020    -4.71342     0.00005
  external pressure =       -2.75 kB  Pullay stress =        0.00 kB


 VOLUME and BASIS-vectors are now :
 -----------------------------------------------------------------------------
  energy-cutoff  :      500.00
  volume of cell :      257.84
      direct lattice vectors                 reciprocal lattice vectors
     4.500557900  0.000000000  0.000000000     0.222194675  0.000000003  0.000000002
    -0.000000100  5.196796700  3.674690100     0.000000000  0.128284155  0.090710596
     0.000000000 -5.196796600  7.349380200     0.000000000 -0.064142077  0.090710598

  length of vectors
     4.500557900  6.364750056  9.001115721     0.222194675  0.157115361  0.111097338


 FORCES acting on ions
    electron-ion (+dipol)            ewald-force                    non-local-force                 convergence-correction
 -----------------------------------------------------------------------------------------------
   -.464E-04 -.439E-01 0.118E+00   -.285E-05 -.245E-05 -.223E-05   0.531E-05 0.106E+00 0.158E-01   0.380E-04 0.507E-03 -.276E-04
   -.309E-04 0.969E-01 -.805E-01   -.285E-05 -.245E-05 -.223E-05   0.810E-06 0.501E-01 0.947E-01   0.353E-04 -.305E-03 0.185E-03
   -.609E-04 -.442E-01 0.118E+00   -.285E-05 -.245E-05 -.223E-05   -.207E-05 0.106E+00 0.157E-01   0.652E-04 0.704E-03 0.236E-03
   0.315E-04 0.968E-01 -.803E-01   -.285E-05 -.245E-05 -.223E-05   0.496E-06 0.501E-01 0.945E-01   -.290E-04 -.165E-03 0.145E-03
   0.112E-04 -.123E+00 -.145E-02   0.285E-05 0.245E-05 0.223E-05   -.742E-05 -.211E-01 -.162E-01   -.550E-05 -.151E-03 -.137E-03
   -.664E-05 -.427E-01 -.115E+00   0.285E-05 0.245E-05 0.223E-05   -.387E-06 -.225E-01 -.145E-01   0.718E-06 0.131E-04 0.782E-04
   0.162E-04 -.123E+00 -.156E-02   0.285E-05 0.245E-05 0.223E-05   -.380E-05 -.211E-01 -.163E-01   -.111E-04 -.160E-03 -.188E-03
   -.207E-04 -.427E-01 -.116E+00   0.285E-05 0.245E-05 0.223E-05   0.976E-05 -.224E-01 -.146E-01   0.510E-05 0.100E-03 0.128E-03
 -----------------------------------------------------------------------------------------------
   -.107E-03 -.225E+00 -.159E+00   0.273E-14 0.242E-14 0.622E-14   0.270E-05 0.225E+00 0.159E+00   0.987E-04 0.544E-03 0.419E-03
 
 
 POSITION                                       TOTAL-FORCE (eV/Angst)
 -----------------------------------------------------------------------------------
      2.25028      3.89760      2.75602        -0.000005      0.062405      0.133586
      0.00000      0.00000      2.75602         0.000003      0.146734      0.014306
      2.25028      1.29920      6.43071         0.000000      0.062373      0.133478
      0.00000     -2.59840      6.43071         0.000001      0.146702      0.014340
      0.00000      0.00000      0.00000         0.000002     -0.144012     -0.017787
      2.25028      1.29920      3.67469        -0.000003     -0.065184     -0.129900
      0.00000     -2.59840      3.67469         0.000005     -0.143974     -0.018027
      2.25028     -1.29920      7.34938        -0.000002     -0.065046     -0.129997
 -----------------------------------------------------------------------------------
    total drift:                               -0.000005      0.000129      0.000104


--------------------------------------------------------------------------------------------------------



  FREE ENERGIE OF THE ION-ELECTRON SYSTEM (eV)
  ---------------------------------------------------
  free  energy   TOTEN  =       -45.86771657 eV

  energy  without entropy=      -45.86057987  energy(sigma->0) =      -45.86533767
 


--------------------------------------------------------------------------------------------------------


    POTLOK:  cpu time    0.1819: real time    0.1823


--------------------------------------------------------------------------------------------------------


     LOOP+:  cpu time   36.7612: real time   36.8673
    4ORBIT:  cpu time    0.0000: real time    0.0000
 


 total charge     
 
# of ion       s       p       d       tot
------------------------------------------
    1        0.308   0.199   4.956   5.463
    2        0.308   0.199   4.956   5.463
    3        0.308   0.199   4.956   5.463
    4        0.308   0.199   4.956   5.463
    5        1.679   2.231   0.062   3.973
    6        1.679   2.231   0.062   3.973
    7        1.679   2.231   0.062   3.973
    8        1.679   2.231   0.062   3.973
--------------------------------------------------
tot          7.950   9.722  20.072  37.744
 


 magnetization (x)
 
# of ion       s       p       d       tot
------------------------------------------
    1        0.046   0.022   3.724   3.792
    2        0.046   0.022   3.724   3.792
    3       -0.046  -0.022  -3.724  -3.792
    4       -0.046  -0.022  -3.724  -3.792
    5       -0.002  -0.232   0.016  -0.217
    6       -0.002  -0.232   0.016  -0.217
    7        0.002   0.232  -0.016   0.217
    8        0.002   0.232  -0.016   0.217
--------------------------------------------------
tot         -0.000   0.000  -0.000   0.000
 

 total amount of memory used by VASP MPI-rank0    54047. kBytes
=======================================================================

   base      :      30000. kBytes
   nonl-proj :       2006. kBytes
   fftplans  :       4613. kBytes
   grid      :      11139. kBytes
   one-center:         31. kBytes
   wavefun   :       6258. kBytes
 
  
  
 General timing and accounting informations for this job:
 ========================================================
  
                  Total CPU time used (sec):       37.805
                            User time (sec):       37.679
                          System time (sec):        0.126
                         Elapsed time (sec):       37.959
  
                   Maximum memory used (kb):       87184.
                   Average memory used (kb):           0.
  
                          Minor page faults:        41279
                          Major page faults:            0
                 Voluntary context switches:          152
