       N       E                     dE             d eps       ncg     rms          rms(c)
DAV:   1     0.140832321743E+03    0.14083E+03   -0.97684E+03  8380   0.249E+03
DAV:   2    -0.584678763807E+01   -0.14668E+03   -0.12934E+03  7424   0.292E+02
DAV:   3    -0.197563173513E+02   -0.13910E+02   -0.13351E+02  7860   0.947E+01
DAV:   4    -0.204699816720E+02   -0.71366E+00   -0.69547E+00 11000   0.193E+01
DAV:   5    -0.204944576071E+02   -0.24476E-01   -0.24275E-01  9428   0.278E+00    0.185E+01
DAV:   6    -0.257254662224E+02   -0.52310E+01   -0.10086E+02 10300   0.108E+02    0.275E+01
DAV:   7    -0.209071880920E+02    0.48183E+01   -0.23588E+01  8676   0.827E+01    0.101E+01
DAV:   8    -0.209332424772E+02   -0.26054E-01   -0.13279E+00  9756   0.997E+00    0.485E+00
DAV:   9    -0.209184741867E+02    0.14768E-01   -0.16683E+00 10848   0.112E+01    0.267E+00
DAV:  10    -0.208612561098E+02    0.57218E-01   -0.21872E-01  9672   0.422E+00    0.982E-01
DAV:  11    -0.208571807690E+02    0.40753E-02   -0.14080E-02  9472   0.116E+00    0.814E-01
DAV:  12    -0.208568329042E+02    0.34786E-03   -0.25941E-02 10340   0.150E+00    0.364E-01
DAV:  13    -0.208571392636E+02   -0.30636E-03   -0.20830E-03  9680   0.293E-01    0.202E-01
DAV:  14    -0.208572436830E+02   -0.10442E-03   -0.15402E-03 10344   0.374E-01    0.825E-02
DAV:  15    -0.208571765935E+02    0.67090E-04   -0.19845E-04  9840   0.114E-01    0.425E-02
DAV:  16    -0.208571972728E+02   -0.20679E-04   -0.21557E-05 10168   0.393E-02    0.140E-02
DAV:  17    -0.208571987197E+02   -0.14470E-05   -0.29319E-06 11404   0.124E-02    0.510E-03
DAV:  18    -0.208571990039E+02   -0.28418E-06   -0.60706E-07  8564   0.553E-03    0.523E-03
DAV:  19    -0.208571973519E+02    0.16520E-05   -0.19326E-07  7140   0.485E-03    0.172E-03
DAV:  20    -0.208571987302E+02   -0.13783E-05   -0.86856E-08  4528   0.308E-03    0.476E-04
DAV:  21    -0.208571984589E+02    0.27131E-06   -0.34415E-08  3904   0.169E-03    0.279E-04
DAV:  22    -0.208571983333E+02    0.12555E-06   -0.13802E-08  3712   0.108E-03    0.273E-04
DAV:  23    -0.208571982703E+02    0.62977E-07   -0.53528E-09  3616   0.869E-04
   1 F= -.20857198E+02 E0= -.20857198E+02  d E =0.000000E+00  mag=     6.9929
