=========================================
SLURM_JOB_ID = 63457583
SLURM_JOB_NODELIST = lnode51
SLURM_GPUS = 
SLURM_CPUS_ON_NODE = 16
SLURM_JOB_PARTITION = lenovo
SLURM_TASK_PID = 968133
CUDA_VISIBLE_DEVICES = 
==========================================
 running on   16 total cores
 distrk:  each k-point on   16 cores,    1 groups
 distr:  one band on    4 cores,    4 groups
 using from now: INCAR     
 vasp.5.4.4.18Apr17-6-g9f103f2a35 (build Apr 28 2018 00:24:27) complex          
  
 POSCAR found type information on POSCAR  Eu O 
 POSCAR found :  2 types and       8 ions
 scaLAPACK will be used

 ----------------------------------------------------------------------------- 
|                                                                             |
|  ADVICE TO THIS USER RUNNING 'VASP/VAMP'   (HEAR YOUR MASTER'S VOICE ...):  |
|                                                                             |
|      You have a (more or less) 'small supercell' and for smaller cells      |
|      it is recommended  to use the reciprocal-space projection scheme!      |
|      The real space optimization is not  efficient for small cells and it   |
|      is also less accurate ...                                              |
|      Therefore set LREAL=.FALSE. in the  INCAR file                         |
|                                                                             |
 ----------------------------------------------------------------------------- 

 LDA part: xc-table for Pade appr. of Perdew
 POSCAR, INCAR and KPOINTS ok, starting setup
 FFT: planning ...
 WAVECAR not read
 entering main loop
       N       E                     dE             d eps       ncg     rms          rms(c)
DAV:   1     0.132277654363E+04    0.13228E+04   -0.32018E+04 52832   0.370E+03
DAV:   2     0.356160604133E+03   -0.96662E+03   -0.87463E+03 60776   0.748E+02
DAV:   3    -0.439291284611E+01   -0.36055E+03   -0.34953E+03 69072   0.374E+02
DAV:   4    -0.749512497694E+02   -0.70558E+02   -0.68812E+02 85128   0.153E+02
DAV:   5    -0.816925730579E+02   -0.67413E+01   -0.62796E+01 86744   0.515E+01    0.381E+01
DAV:   6    -0.899331518357E+02   -0.82406E+01   -0.33832E+02 72224   0.165E+02    0.526E+01
DAV:   7    -0.802658960587E+02    0.96673E+01   -0.16781E+02 61872   0.165E+02    0.254E+01
DAV:   8    -0.838074597643E+02   -0.35416E+01   -0.43848E+01 82296   0.411E+01    0.968E+00
DAV:   9    -0.831697888225E+02    0.63767E+00   -0.82033E+00 77248   0.188E+01    0.648E+00
DAV:  10    -0.833570307813E+02   -0.18724E+00   -0.10909E+00 86048   0.826E+00    0.495E+00
DAV:  11    -0.832975586091E+02    0.59472E-01   -0.31377E-01 70920   0.602E+00    0.370E+00
DAV:  12    -0.832528443652E+02    0.44714E-01   -0.17983E-01 75232   0.428E+00    0.152E+00
DAV:  13    -0.832446578686E+02    0.81865E-02   -0.51469E-02 79336   0.212E+00    0.532E-01
DAV:  14    -0.832478215944E+02   -0.31637E-02   -0.12961E-02 85400   0.110E+00    0.211E-01
DAV:  15    -0.832486913792E+02   -0.86978E-03   -0.24671E-03 87744   0.448E-01    0.155E-01
DAV:  16    -0.832488564901E+02   -0.16511E-03   -0.53228E-04 85952   0.193E-01    0.772E-02
DAV:  17    -0.832488972923E+02   -0.40802E-04   -0.16097E-04 77104   0.131E-01    0.325E-02
DAV:  18    -0.832489164939E+02   -0.19202E-04   -0.48157E-05 82984   0.690E-02    0.278E-02
DAV:  19    -0.832489129588E+02    0.35351E-05   -0.12090E-05 83896   0.298E-02    0.139E-02
DAV:  20    -0.832489091887E+02    0.37701E-05   -0.25331E-06 78440   0.129E-02    0.438E-03
DAV:  21    -0.832489087060E+02    0.48276E-06   -0.56405E-07 49552   0.927E-03    0.363E-03
DAV:  22    -0.832489096519E+02   -0.94599E-06   -0.16226E-07 35240   0.669E-03    0.945E-04
DAV:  23    -0.832489096473E+02    0.46002E-08   -0.84857E-08 33712   0.448E-03
   1 F= -.83248910E+02 E0= -.83248910E+02  d E =0.000000E+00  mag=     0.0000
