       N       E                     dE             d eps       ncg     rms          rms(c)
DAV:   1     0.256536487364E+03    0.25654E+03   -0.16902E+04 73632   0.211E+03
DAV:   2     0.231764230824E+01   -0.25422E+03   -0.24705E+03 74408   0.387E+02
DAV:   3    -0.147201603505E+02   -0.17038E+02   -0.16714E+02 82344   0.138E+02
DAV:   4    -0.150005135415E+02   -0.28035E+00   -0.27912E+00 76456   0.174E+01
DAV:   5    -0.150118205885E+02   -0.11307E-01   -0.11303E-01108432   0.291E+00    0.327E+01
DAV:   6    -0.163259020721E+02   -0.13141E+01   -0.57594E+01 80920   0.102E+02    0.111E+01
DAV:   7    -0.159276915640E+02    0.39821E+00   -0.81481E+00 81216   0.438E+01    0.416E+00
DAV:   8    -0.162060897137E+02   -0.27840E+00   -0.10064E+00 98536   0.983E+00    0.264E+00
DAV:   9    -0.163256630628E+02   -0.11957E+00   -0.21666E-01101768   0.459E+00    0.179E+00
DAV:  10    -0.164815179458E+02   -0.15585E+00   -0.49254E-01132504   0.707E+00    0.817E-01
DAV:  11    -0.165193042597E+02   -0.37786E-01   -0.77899E-02113832   0.433E+00    0.548E-01
DAV:  12    -0.165356570697E+02   -0.16353E-01   -0.29813E-02111968   0.195E+00    0.370E-01
DAV:  13    -0.165459922995E+02   -0.10335E-01   -0.27870E-02129040   0.160E+00    0.286E-01
DAV:  14    -0.165521739392E+02   -0.61816E-02   -0.34255E-02132424   0.202E+00    0.280E-01
DAV:  15    -0.165624196543E+02   -0.10246E-01   -0.56352E-02134272   0.244E+00    0.197E-01
DAV:  16    -0.165684810614E+02   -0.60614E-02   -0.54418E-02129552   0.214E+00    0.126E-01
DAV:  17    -0.165700796953E+02   -0.15986E-02   -0.77555E-03112736   0.725E-01    0.779E-02
DAV:  18    -0.165710499138E+02   -0.97022E-03   -0.66813E-03139040   0.766E-01    0.524E-02
DAV:  19    -0.165716399741E+02   -0.59006E-03   -0.19034E-02138976   0.128E+00    0.328E-02
DAV:  20    -0.165717615955E+02   -0.12162E-03   -0.65997E-04 75088   0.318E-01    0.190E-02
DAV:  21    -0.165717855687E+02   -0.23973E-04   -0.83137E-05106680   0.100E-01    0.122E-02
DAV:  22    -0.165717989834E+02   -0.13415E-04   -0.35477E-05127688   0.599E-02    0.805E-03
DAV:  23    -0.165718101178E+02   -0.11134E-04   -0.41398E-05138144   0.657E-02    0.584E-03
DAV:  24    -0.165718152747E+02   -0.51569E-05   -0.29106E-05138800   0.534E-02    0.535E-03
DAV:  25    -0.165718204783E+02   -0.52036E-05   -0.78720E-06119928   0.303E-02    0.516E-03
DAV:  26    -0.165718242570E+02   -0.37787E-05   -0.44088E-06 98800   0.215E-02    0.516E-03
DAV:  27    -0.165718240131E+02    0.24394E-06   -0.35573E-07 61352   0.775E-03    0.517E-03
DAV:  28    -0.165718236345E+02    0.37859E-06   -0.45414E-08 37040   0.221E-03    0.518E-03
DAV:  29    -0.165718231717E+02    0.46278E-06   -0.11070E-07 36960   0.474E-03    0.532E-03
DAV:  30    -0.165718301257E+02   -0.69540E-05   -0.45312E-05122648   0.626E-02    0.229E-02
DAV:  31    -0.165718335001E+02   -0.33745E-05   -0.98301E-06115280   0.292E-02    0.258E-02
DAV:  32    -0.165718259395E+02    0.75607E-05   -0.34443E-05129608   0.602E-02    0.244E-02
DAV:  33    -0.165718237397E+02    0.21998E-05   -0.47369E-06111448   0.192E-02    0.238E-02
DAV:  34    -0.165718186318E+02    0.51079E-05   -0.23625E-05123400   0.462E-02    0.217E-02
DAV:  35    -0.165718151966E+02    0.34352E-05   -0.24549E-05132088   0.447E-02    0.186E-02
DAV:  36    -0.165718134352E+02    0.17614E-05   -0.13962E-05132056   0.336E-02    0.161E-02
DAV:  37    -0.165718130129E+02    0.42236E-06   -0.15411E-06 82224   0.112E-02    0.156E-02
DAV:  38    -0.165718129008E+02    0.11207E-06   -0.49178E-07 47136   0.596E-03    0.154E-02
DAV:  39    -0.165718129059E+02   -0.51068E-08   -0.18359E-07 39976   0.318E-03
   1 F= -.16571813E+02 E0= -.16571813E+02  d E =0.000000E+00  mag=    -0.0000
