       N       E                     dE             d eps       ncg     rms          rms(c)
DAV:   1     0.761090285521E+03    0.76109E+03   -0.33439E+04 36680   0.259E+03
DAV:   2     0.460287101672E+02   -0.71506E+03   -0.69594E+03 35052   0.686E+02
DAV:   3    -0.143685646948E+02   -0.60397E+02   -0.58552E+02 36768   0.209E+02
DAV:   4    -0.159395787078E+02   -0.15710E+01   -0.15653E+01 37192   0.356E+01
DAV:   5    -0.159739802755E+02   -0.34402E-01   -0.34391E-01 38264   0.517E+00    0.315E+01
DAV:   6    -0.137050638239E+02    0.22689E+01   -0.25882E+01 35480   0.508E+01    0.147E+01
DAV:   7    -0.158288682096E+02   -0.21238E+01   -0.28258E+00 36336   0.136E+01    0.858E+00
DAV:   8    -0.162210782014E+02   -0.39221E+00   -0.56799E-01 36988   0.502E+00    0.349E+00
DAV:   9    -0.164608942216E+02   -0.23982E+00   -0.72651E-01 41428   0.402E+00    0.125E+00
DAV:  10    -0.165357765277E+02   -0.74882E-01   -0.16727E-01 37264   0.208E+00    0.869E-01
DAV:  11    -0.166014970180E+02   -0.65720E-01   -0.23394E-01 45312   0.199E+00    0.521E-01
DAV:  12    -0.166226709354E+02   -0.21174E-01   -0.81812E-02 38156   0.114E+00    0.327E-01
DAV:  13    -0.166312881814E+02   -0.86172E-02   -0.34498E-02 42472   0.651E-01    0.199E-01
DAV:  14    -0.166356737025E+02   -0.43855E-02   -0.27349E-02 40504   0.563E-01    0.115E-01
DAV:  15    -0.166368817643E+02   -0.12081E-02   -0.43466E-03 38932   0.256E-01    0.781E-02
DAV:  16    -0.166371047343E+02   -0.22297E-03   -0.43455E-04 38600   0.135E-01    0.405E-02
DAV:  17    -0.166372398791E+02   -0.13514E-03   -0.48910E-04 41104   0.855E-02    0.194E-02
DAV:  18    -0.166372962278E+02   -0.56349E-04   -0.39133E-04 41600   0.557E-02    0.174E-02
DAV:  19    -0.166373154486E+02   -0.19221E-04   -0.11020E-04 39784   0.357E-02    0.128E-02
DAV:  20    -0.166373227725E+02   -0.73239E-05   -0.14021E-04 42544   0.373E-02    0.917E-03
DAV:  21    -0.166373167415E+02    0.60310E-05   -0.71674E-05 45280   0.355E-02    0.504E-03
DAV:  22    -0.166373188491E+02   -0.21076E-05   -0.57504E-06 36040   0.181E-02    0.194E-03
DAV:  23    -0.166373193689E+02   -0.51975E-06   -0.36392E-07 27004   0.330E-03    0.104E-03
DAV:  24    -0.166373192101E+02    0.15878E-06   -0.65952E-08 17560   0.179E-03    0.572E-04
DAV:  25    -0.166373193577E+02   -0.14759E-06   -0.37649E-08 17564   0.122E-03    0.191E-04
DAV:  26    -0.166373194042E+02   -0.46535E-07   -0.39726E-09 17512   0.596E-04
   1 F= -.16637319E+02 E0= -.16637319E+02  d E =0.000000E+00  mag=     0.0000
