       N       E                     dE             d eps       ncg     rms          rms(c)
DAV:   1     0.199895564586E+03    0.19990E+03   -0.12203E+04  3792   0.138E+03
DAV:   2    -0.876006036534E+01   -0.20866E+03   -0.19737E+03  3424   0.354E+02
DAV:   3    -0.173546517114E+02   -0.85946E+01   -0.85739E+01  3600   0.806E+01
DAV:   4    -0.174179945614E+02   -0.63343E-01   -0.63340E-01  3720   0.669E+00
DAV:   5    -0.174188806167E+02   -0.88606E-03   -0.88605E-03  3608   0.725E-01    0.246E+01
DAV:   6    -0.176530172458E+02   -0.23414E+00   -0.66747E+00  3504   0.376E+01    0.640E+00
DAV:   7    -0.177301956356E+02   -0.77178E-01   -0.55280E-01  3496   0.908E+00    0.410E+00
DAV:   8    -0.177446654366E+02   -0.14470E-01   -0.13081E-02  3632   0.133E+00    0.139E+00
DAV:   9    -0.177366350682E+02    0.80304E-02   -0.42860E-03  3568   0.802E-01    0.330E-01
DAV:  10    -0.177364543925E+02    0.18068E-03   -0.20731E-03  3424   0.546E-01    0.399E-02
DAV:  11    -0.177365005352E+02   -0.46143E-04   -0.63474E-05  3544   0.605E-02    0.233E-02
DAV:  12    -0.177365012496E+02   -0.71438E-06   -0.18742E-06  3192   0.153E-02
   1 F= -.17736501E+02 E0= -.17716456E+02  d E =-.400902E-01  mag=     4.4320
