=========================================
SLURM_JOB_ID = 30554665
SLURM_JOB_NODELIST = lnode22
SLURM_GPUS = 
SLURM_CPUS_ON_NODE = 8
SLURM_JOB_PARTITION = lenovo
SLURM_TASK_PID = 888966
CUDA_VISIBLE_DEVICES = 
==========================================
 running on    8 total cores
 distrk:  each k-point on    8 cores,    1 groups
 distr:  one band on    1 cores,    8 groups
 using from now: INCAR     
 vasp.5.4.4.18Apr17-6-g9f103f2a35 (build Apr 28 2018 00:24:27) complex          
  
 POSCAR found type information on POSCAR  Ni
 POSCAR found :  1 types and       6 ions
 scaLAPACK will be used

 ----------------------------------------------------------------------------- 
|                                                                             |
|           W    W    AA    RRRRR   N    N  II  N    N   GGGG   !!!           |
|           W    W   A  A   R    R  NN   N  II  NN   N  G    G  !!!           |
|           W    W  A    A  R    R  N N  N  II  N N  N  G       !!!           |
|           W WW W  AAAAAA  RRRRR   N  N N  II  N  N N  G  GGG   !            |
|           WW  WW  A    A  R   R   N   NN  II  N   NN  G    G                |
|           W    W  A    A  R    R  N    N  II  N    N   GGGG   !!!           |
|                                                                             |
|      For optimal performance we recommend to set                            |
|        NCORE= 4 - approx SQRT( number of cores)                             |
|      NCORE specifies how many cores store one orbital (NPAR=cpu/NCORE).     |
|      This setting can  greatly improve the performance of VASP for DFT.     |
|      The default,   NCORE=1            might be grossly inefficient         |
|      on modern multi-core architectures or massively parallel machines.     |
|      Do your own testing !!!!                                               |
|      Unfortunately you need to use the default for GW and RPA calculations. |
|      (for HF NCORE is supported but not extensively tested yet)             |
|                                                                             |
 ----------------------------------------------------------------------------- 

 LDA part: xc-table for Pade appr. of Perdew
 POSCAR, INCAR and KPOINTS ok, starting setup
 FFT: planning ...
 WAVECAR not read
 entering main loop
       N       E                     dE             d eps       ncg     rms          rms(c)
DAV:   1     0.425711827113E+03    0.42571E+03   -0.26401E+04 23720   0.218E+03
DAV:   2    -0.693866660729E+01   -0.43265E+03   -0.41302E+03 23360   0.393E+02
DAV:   3    -0.382913030521E+02   -0.31353E+02   -0.29371E+02 24904   0.143E+02
DAV:   4    -0.387667744296E+02   -0.47547E+00   -0.47480E+00 26704   0.189E+01
DAV:   5    -0.387827787689E+02   -0.16004E-01   -0.16004E-01 33928   0.248E+00    0.247E+01
DAV:   6    -0.346927554026E+02    0.40900E+01   -0.54279E+01 25376   0.946E+01    0.187E+01
DAV:   7    -0.390344328789E+02   -0.43417E+01   -0.32277E+01 27240   0.120E+02    0.355E+01
DAV:   8    -0.327178806488E+02    0.63166E+01   -0.23930E+01 27504   0.756E+01    0.918E+00
DAV:   9    -0.325586594356E+02    0.15922E+00   -0.34125E+00 33704   0.301E+01    0.700E+00
DAV:  10    -0.326111564813E+02   -0.52497E-01   -0.68910E-01 27224   0.111E+01    0.331E+00
DAV:  11    -0.326314681644E+02   -0.20312E-01   -0.13606E-01 31368   0.462E+00    0.148E+00
DAV:  12    -0.326314638243E+02    0.43401E-05   -0.53519E-02 39192   0.278E+00    0.402E-01
DAV:  13    -0.326334355373E+02   -0.19717E-02   -0.10095E-02 26752   0.102E+00    0.464E-01
DAV:  14    -0.326336120083E+02   -0.17647E-03   -0.10413E-03 37904   0.582E-01    0.224E-01
DAV:  15    -0.326335104111E+02    0.10160E-03   -0.10143E-03 40736   0.477E-01    0.772E-02
DAV:  16    -0.326334865718E+02    0.23839E-04   -0.17365E-04 27536   0.192E-01    0.284E-02
DAV:  17    -0.326334779386E+02    0.86332E-05   -0.24367E-05 29792   0.608E-02    0.240E-02
DAV:  18    -0.326334779037E+02    0.34907E-07   -0.95892E-06 26440   0.608E-02
   1 F= -.32633478E+02 E0= -.32621975E+02  d E =-.345096E-01  mag=     0.0000
