 vasp.5.4.4.18Apr17-6-g9f103f2a35 (build Apr 28 2018 00:24:27) complex          
  
 executed on             LinuxIFC date 2021.03.19  19:37:15
 running on    8 total cores
 distrk:  each k-point on    8 cores,    1 groups
 distr:  one band on NCORES_PER_BAND=   1 cores,    8 groups


--------------------------------------------------------------------------------------------------------


 INCAR:
 POTCAR:    PAW_PBE Ni 02Aug2007                  

 ----------------------------------------------------------------------------- 
|                                                                             |
|           W    W    AA    RRRRR   N    N  II  N    N   GGGG   !!!           |
|           W    W   A  A   R    R  NN   N  II  NN   N  G    G  !!!           |
|           W    W  A    A  R    R  N N  N  II  N N  N  G       !!!           |
|           W WW W  AAAAAA  RRRRR   N  N N  II  N  N N  G  GGG   !            |
|           WW  WW  A    A  R   R   N   NN  II  N   NN  G    G                |
|           W    W  A    A  R    R  N    N  II  N    N   GGGG   !!!           |
|                                                                             |
|      For optimal performance we recommend to set                            |
|        NCORE= 4 - approx SQRT( number of cores)                             |
|      NCORE specifies how many cores store one orbital (NPAR=cpu/NCORE).     |
|      This setting can  greatly improve the performance of VASP for DFT.     |
|      The default,   NCORE=1            might be grossly inefficient         |
|      on modern multi-core architectures or massively parallel machines.     |
|      Do your own testing !!!!                                               |
|      Unfortunately you need to use the default for GW and RPA calculations. |
|      (for HF NCORE is supported but not extensively tested yet)             |
|                                                                             |
 ----------------------------------------------------------------------------- 

 POTCAR:    PAW_PBE Ni 02Aug2007                  
   SHA256 =  0534bc51ca8003dfef23f56753fef9fdd3e22eac8d719fccacb59f3e6b7a69c7 Ni
   COPYR  = (c) Copyright 02Aug2007 Georg Kresse                                
   COPYR  = This file is part of the software VASP. Any use, copying, and all ot
   COPYR  = If you do not have a valid VASP license, you may not use, copy or di
   VRHFIN =Ni:                                                                  
   LEXCH  = PE                                                                  
   EATOM  =  1077.6739 eV,   79.2068 Ry                                         
                                                                                
   TITEL  = PAW_PBE Ni 02Aug2007                                                
   LULTRA =        F    use ultrasoft PP ?                                      
   IUNSCR =        1    unscreen: 0-lin 1-nonlin 2-no                           
   RPACOR =    2.000    partial core radius                                     
   POMASS =   58.690; ZVAL   =   10.000    mass and valenz                      
   RCORE  =    2.300    outmost cutoff radius                                   
   RWIGS  =    2.430; RWIGS  =    1.286    wigner-seitz radius (au A)           
   ENMAX  =  269.532; ENMIN  =  202.149 eV                                      
   RCLOC  =    1.201    cutoff for local pot                                    
   LCOR   =        T    correct aug charges                                     
   LPAW   =        T    paw PP                                                  
   EAUG   =  544.565                                                            
   DEXC   =    0.000                                                            
   RMAX   =    2.357    core radius for proj-oper                               
   RAUG   =    1.300    factor for augmentation sphere                          
   RDEP   =    2.390    radius for radial grids                                 
   RDEPT  =    1.838    core radius for aug-charge                              
                                                                                
   Atomic configuration                                                         
    9 entries                                                                   
     n  l   j            E        occ.                                          
     1  0  0.50     -8206.4253   2.0000                                         
     2  0  0.50      -976.1748   2.0000                                         
     2  1  1.50      -839.0571   6.0000                                         
     3  0  0.50      -105.9991   2.0000                                         
     3  1  1.50       -66.4603   6.0000                                         
     3  2  2.50        -4.6458   9.0000                                         
     4  0  0.50        -4.4926   1.0000                                         
     4  1  1.50        -4.0817   0.0000                                         
     4  3  2.50        -1.3606   0.0000                                         
   Description                                                                  
     l       E           TYP  RCUT    TYP  RCUT                                 
     2     -4.6457903     23  2.300                                             
     2     -6.0063729     23  2.300                                             
     0     -4.4925590     23  2.300                                             
     0      5.0102601     23  2.300                                             
     1     -2.7211652     23  2.300                                             
     1     16.5183231     23  2.300                                             
  local pseudopotential read in
  partial core-charges read in
  partial kinetic energy density read in
  atomic valenz-charges read in
  non local Contribution for L=           2  read in
    real space projection operators read in
  non local Contribution for L=           2  read in
    real space projection operators read in
  non local Contribution for L=           0  read in
    real space projection operators read in
  non local Contribution for L=           0  read in
    real space projection operators read in
  non local Contribution for L=           1  read in
    real space projection operators read in
  non local Contribution for L=           1  read in
    real space projection operators read in
    PAW grid and wavefunctions read in
 
   number of l-projection  operators is LMAX  =           6
   number of lm-projection operators is LMMAX =          18
 
  PAW_PBE Ni 02Aug2007                  :
 energy of atom  1       EATOM=-1077.6739
 kinetic energy error for atom=    0.0030 (will be added to EATOM!!)
 
 
 POSCAR: Ni1 str #: 8                            
  positions in direct lattice
  No initial velocities read in
 exchange correlation table for  LEXCH =        8
   RHO(1)=    0.500       N(1)  =     2000
   RHO(2)=  100.500       N(2)  =     4000
 


--------------------------------------------------------------------------------------------------------


 ion  position               nearest neighbor table
   1  0.000  0.000  0.000-   2 2.48   6 2.48   6 2.48   2 2.48   6 2.48   2 2.48
   2  0.333  0.333  0.167-   3 2.48   1 2.48   3 2.48   1 2.48   3 2.48   1 2.48
   3  0.667  0.667  0.333-   2 2.48   4 2.48   2 2.48   4 2.48   2 2.48   4 2.48
   4  0.000  0.000  0.500-   3 2.48   5 2.48   3 2.48   5 2.48   3 2.48   5 2.48
   5  0.333  0.333  0.667-   6 2.48   4 2.48   6 2.48   4 2.48   6 2.48   4 2.48
   6  0.667  0.667  0.833-   5 2.48   1 2.48   5 2.48   1 2.48   5 2.48   1 2.48
 
  LATTYP: Found a hexagonal cell.
 ALAT       =     2.4767001214
 C/A-ratio  =     4.8989792891
  
  Lattice vectors:
  
 A1 = (   1.2383501000,  -2.1448852000,   0.0000000000)
 A2 = (  -2.4767001000,   0.0000000000,   0.0000000000)
 A3 = (   0.0000002000,   0.0000000200, -12.1333026000)


Analysis of symmetry for initial positions (statically):
=====================================================================
 Subroutine PRICEL returns following result:
 
  LATTYP: Found a face centered cubic cell.
 ALAT       =     3.5025828661
  
  Lattice vectors:
  
 A1 = (   2.4767000963,  -0.0000000021,   0.0000000121)
 A2 = (   1.2383500963,  -2.1448852021,   0.0000000121)
 A3 = (   1.2383500975,  -0.7149617314,  -2.0222170919)
 
   6 primitive cells build up your supercell.
 

 Routine SETGRP: Setting up the symmetry group for a 
 hexagonal supercell.


 Subroutine GETGRP returns: Found 12 space group operations
 (whereof 12 operations were pure point group operations)
 out of a pool of 24 trial point group operations.


The static configuration has the point symmetry D_3d.


Analysis of symmetry for dynamics (positions and initial velocities):
=====================================================================
 Subroutine PRICEL returns following result:
 
  LATTYP: Found a face centered cubic cell.
 ALAT       =     3.5025828661
  
  Lattice vectors:
  
 A1 = (   2.4767000963,  -0.0000000021,   0.0000000121)
 A2 = (   1.2383500963,  -2.1448852021,   0.0000000121)
 A3 = (   1.2383500975,  -0.7149617314,  -2.0222170919)
 
   6 primitive cells build up your supercell.
 

 Routine SETGRP: Setting up the symmetry group for a 
 hexagonal supercell.


 Subroutine GETGRP returns: Found 12 space group operations
 (whereof 12 operations were pure point group operations)
 out of a pool of 24 trial point group operations.


The dynamic configuration has the point symmetry D_3d.


Analysis of structural, dynamic, and magnetic symmetry:
=====================================================================
 Subroutine PRICEL returns following result:
 
  LATTYP: Found a hexagonal cell.
 ALAT       =     2.4767001214
 C/A-ratio  =     2.4494896445
  
  Lattice vectors:
  
 A1 = (   1.2383501000,  -2.1448852000,   0.0000000000)
 A2 = (  -2.4767001000,   0.0000000000,   0.0000000000)
 A3 = (   0.0000001000,   0.0000000100,  -6.0666513000)
 
   2 primitive cells build up your supercell.
 

 Routine SETGRP: Setting up the symmetry group for a 
 hexagonal supercell.


 Subroutine GETGRP returns: Found 12 space group operations
 (whereof  6 operations were pure point group operations)
 out of a pool of 24 trial point group operations.


The magnetic configuration has the point symmetry C_3v.
 The point group associated with its full space group is D_3d.


 Subroutine INISYM returns: Found 12 space group operations
 (whereof  6 operations are pure point group operations),
 and found     2 'primitive' translations

 
 
 KPOINTS: k-points                                

Automatic generation of k-mesh.
Space group operators:
 irot       det(A)        alpha          n_x          n_y          n_z        tau_x        tau_y        tau_z
    1     1.000000     0.000001     1.000000     0.000000     0.000000     0.000000     0.000000     0.000000
    2     1.000000   120.000000    -0.000000     0.000000     1.000000     0.000000     0.000000     0.000000
    3     1.000000   120.000000     0.000000     0.000000    -1.000000     0.000000     0.000000     0.000000
    4    -1.000000   180.000000    -0.500000     0.866025    -0.000000     0.000000     0.000000     0.000000
    5    -1.000000   180.000000     1.000000     0.000000     0.000000     0.000000     0.000000     0.000000
    6    -1.000000   180.000000     0.500000     0.866025     0.000000     0.000000     0.000000     0.000000
    7    -1.000000     0.000001     1.000000     0.000000     0.000000    -0.333333    -0.333333    -0.166667
    8    -1.000000   120.000000    -0.000000     0.000000     1.000000    -0.333333    -0.333333    -0.166667
    9    -1.000000   120.000000     0.000000     0.000000    -1.000000    -0.333333    -0.333333    -0.166667
   10     1.000000   180.000000    -0.500000     0.866025    -0.000000    -0.333333    -0.333333    -0.166667
   11     1.000000   180.000000     1.000000     0.000000     0.000000    -0.333333    -0.333333    -0.166667
   12     1.000000   180.000000     0.500000     0.866025     0.000000    -0.333333    -0.333333    -0.166667
 
 Subroutine IBZKPT returns following result:
 ===========================================
 
 Found    146 irreducible k-points:
 
 Following reciprocal coordinates:
            Coordinates               Weight
  0.000000  0.000000  0.000000      1.000000
  0.090909  0.000000  0.000000      6.000000
  0.181818  0.000000  0.000000      6.000000
  0.272727  0.000000  0.000000      6.000000
  0.363636  0.000000  0.000000      6.000000
  0.454545 -0.000000  0.000000      6.000000
  0.181818  0.090909  0.000000      6.000000
  0.272727  0.090909  0.000000     12.000000
  0.363636  0.090909 -0.000000     12.000000
  0.454545  0.090909  0.000000     12.000000
 -0.454545  0.090909  0.000000      6.000000
  0.363636  0.181818  0.000000      6.000000
  0.454545  0.181818  0.000000     12.000000
 -0.454545  0.181818 -0.000000     12.000000
 -0.454545  0.272727 -0.000000      6.000000
 -0.363636  0.272727  0.000000      6.000000
  0.000000  0.000000  0.090909      2.000000
  0.090909  0.000000  0.090909      6.000000
  0.181818  0.000000  0.090909      6.000000
  0.272727  0.000000  0.090909      6.000000
  0.363636  0.000000  0.090909      6.000000
  0.454545 -0.000000  0.090909      6.000000
 -0.454545  0.000000  0.090909      6.000000
 -0.363636  0.000000  0.090909      6.000000
 -0.272727  0.000000  0.090909      6.000000
 -0.181818  0.000000  0.090909      6.000000
 -0.090909  0.000000  0.090909      6.000000
  0.181818  0.090909  0.090909     12.000000
  0.272727  0.090909  0.090909     12.000000
  0.363636  0.090909  0.090909     12.000000
  0.454545  0.090909  0.090909     12.000000
 -0.454545  0.090909  0.090909     12.000000
 -0.363636  0.090909  0.090909     12.000000
 -0.272727  0.090909  0.090909     12.000000
 -0.181818  0.090909  0.090909     12.000000
  0.363636  0.181818  0.090909     12.000000
  0.454545  0.181818  0.090909     12.000000
 -0.454545  0.181818  0.090909     12.000000
 -0.363636  0.181818  0.090909     12.000000
 -0.272727  0.181818  0.090909     12.000000
 -0.454545  0.272727  0.090909     12.000000
 -0.363636  0.272727  0.090909     12.000000
  0.000000  0.000000  0.181818      2.000000
  0.090909  0.000000  0.181818      6.000000
  0.181818  0.000000  0.181818      6.000000
  0.272727  0.000000  0.181818      6.000000
  0.363636  0.000000  0.181818      6.000000
  0.454545 -0.000000  0.181818      6.000000
 -0.454545  0.000000  0.181818      6.000000
 -0.363636  0.000000  0.181818      6.000000
 -0.272727  0.000000  0.181818      6.000000
 -0.181818  0.000000  0.181818      6.000000
 -0.090909  0.000000  0.181818      6.000000
  0.181818  0.090909  0.181818     12.000000
  0.272727  0.090909  0.181818     12.000000
  0.363636  0.090909  0.181818     12.000000
  0.454545  0.090909  0.181818     12.000000
 -0.454545  0.090909  0.181818     12.000000
 -0.363636  0.090909  0.181818     12.000000
 -0.272727  0.090909  0.181818     12.000000
 -0.181818  0.090909  0.181818     12.000000
  0.363636  0.181818  0.181818     12.000000
  0.454545  0.181818  0.181818     12.000000
 -0.454545  0.181818  0.181818     12.000000
 -0.363636  0.181818  0.181818     12.000000
 -0.272727  0.181818  0.181818     12.000000
 -0.454545  0.272727  0.181818     12.000000
 -0.363636  0.272727  0.181818     12.000000
  0.000000  0.000000  0.272727      2.000000
  0.090909  0.000000  0.272727      6.000000
  0.181818  0.000000  0.272727      6.000000
  0.272727  0.000000  0.272727      6.000000
  0.363636  0.000000  0.272727      6.000000
  0.454545 -0.000000  0.272727      6.000000
 -0.454545  0.000000  0.272727      6.000000
 -0.363636  0.000000  0.272727      6.000000
 -0.272727  0.000000  0.272727      6.000000
 -0.181818  0.000000  0.272727      6.000000
 -0.090909  0.000000  0.272727      6.000000
  0.181818  0.090909  0.272727     12.000000
  0.272727  0.090909  0.272727     12.000000
  0.363636  0.090909  0.272727     12.000000
  0.454545  0.090909  0.272727     12.000000
 -0.454545  0.090909  0.272727     12.000000
 -0.363636  0.090909  0.272727     12.000000
 -0.272727  0.090909  0.272727     12.000000
 -0.181818  0.090909  0.272727     12.000000
  0.363636  0.181818  0.272727     12.000000
  0.454545  0.181818  0.272727     12.000000
 -0.454545  0.181818  0.272727     12.000000
 -0.363636  0.181818  0.272727     12.000000
 -0.272727  0.181818  0.272727     12.000000
 -0.454545  0.272727  0.272727     12.000000
 -0.363636  0.272727  0.272727     12.000000
  0.000000  0.000000  0.363636      2.000000
  0.090909  0.000000  0.363636      6.000000
  0.181818  0.000000  0.363636      6.000000
  0.272727  0.000000  0.363636      6.000000
  0.363636  0.000000  0.363636      6.000000
  0.454545 -0.000000  0.363636      6.000000
 -0.454545  0.000000  0.363636      6.000000
 -0.363636  0.000000  0.363636      6.000000
 -0.272727  0.000000  0.363636      6.000000
 -0.181818  0.000000  0.363636      6.000000
 -0.090909  0.000000  0.363636      6.000000
  0.181818  0.090909  0.363636     12.000000
  0.272727  0.090909  0.363636     12.000000
  0.363636  0.090909  0.363636     12.000000
  0.454545  0.090909  0.363636     12.000000
 -0.454545  0.090909  0.363636     12.000000
 -0.363636  0.090909  0.363636     12.000000
 -0.272727  0.090909  0.363636     12.000000
 -0.181818  0.090909  0.363636     12.000000
  0.363636  0.181818  0.363636     12.000000
  0.454545  0.181818  0.363636     12.000000
 -0.454545  0.181818  0.363636     12.000000
 -0.363636  0.181818  0.363636     12.000000
 -0.272727  0.181818  0.363636     12.000000
 -0.454545  0.272727  0.363636     12.000000
 -0.363636  0.272727  0.363636     12.000000
  0.000000  0.000000  0.454545      2.000000
  0.090909  0.000000  0.454545      6.000000
  0.181818  0.000000  0.454545      6.000000
  0.272727  0.000000  0.454545      6.000000
  0.363636  0.000000  0.454545      6.000000
  0.454545 -0.000000  0.454545      6.000000
 -0.454545  0.000000  0.454545      6.000000
 -0.363636  0.000000  0.454545      6.000000
 -0.272727  0.000000  0.454545      6.000000
 -0.181818  0.000000  0.454545      6.000000
 -0.090909  0.000000  0.454545      6.000000
  0.181818  0.090909  0.454545     12.000000
  0.272727  0.090909  0.454545     12.000000
  0.363636  0.090909  0.454545     12.000000
  0.454545  0.090909  0.454545     12.000000
 -0.454545  0.090909  0.454545     12.000000
 -0.363636  0.090909  0.454545     12.000000
 -0.272727  0.090909  0.454545     12.000000
 -0.181818  0.090909  0.454545     12.000000
  0.363636  0.181818  0.454545     12.000000
  0.454545  0.181818  0.454545     12.000000
 -0.454545  0.181818  0.454545     12.000000
 -0.363636  0.181818  0.454545     12.000000
 -0.272727  0.181818  0.454545     12.000000
 -0.454545  0.272727  0.454545     12.000000
 -0.363636  0.272727  0.454545     12.000000
 
 Following cartesian coordinates:
            Coordinates               Weight
  0.000000  0.000000  0.000000      1.000000
  0.036706 -0.021192  0.000000      6.000000
  0.073411 -0.042384  0.000000      6.000000
  0.110117 -0.063576  0.000000      6.000000
  0.146823 -0.084768  0.000000      6.000000
  0.183529 -0.105960  0.000000      6.000000
  0.073411  0.000000  0.000000      6.000000
  0.110117 -0.021192  0.000000     12.000000
  0.146823 -0.042384  0.000000     12.000000
  0.183529 -0.063576  0.000000     12.000000
 -0.183529  0.148344 -0.000000      6.000000
  0.146823  0.000000  0.000000      6.000000
  0.183529 -0.021192  0.000000     12.000000
 -0.183529  0.190729 -0.000000     12.000000
 -0.183529  0.233113 -0.000000      6.000000
 -0.146823  0.211921 -0.000000      6.000000
  0.000000  0.000000  0.007493      2.000000
  0.036706 -0.021192  0.007493      6.000000
  0.073411 -0.042384  0.007493      6.000000
  0.110117 -0.063576  0.007493      6.000000
  0.146823 -0.084768  0.007493      6.000000
  0.183529 -0.105960  0.007493      6.000000
 -0.183529  0.105960  0.007493      6.000000
 -0.146823  0.084768  0.007493      6.000000
 -0.110117  0.063576  0.007493      6.000000
 -0.073411  0.042384  0.007493      6.000000
 -0.036706  0.021192  0.007493      6.000000
  0.073411  0.000000  0.007493     12.000000
  0.110117 -0.021192  0.007493     12.000000
  0.146823 -0.042384  0.007493     12.000000
  0.183529 -0.063576  0.007493     12.000000
 -0.183529  0.148344  0.007493     12.000000
 -0.146823  0.127152  0.007493     12.000000
 -0.110117  0.105960  0.007493     12.000000
 -0.073411  0.084768  0.007493     12.000000
  0.146823  0.000000  0.007493     12.000000
  0.183529 -0.021192  0.007493     12.000000
 -0.183529  0.190729  0.007493     12.000000
 -0.146823  0.169537  0.007493     12.000000
 -0.110117  0.148344  0.007493     12.000000
 -0.183529  0.233113  0.007493     12.000000
 -0.146823  0.211921  0.007493     12.000000
  0.000000  0.000000  0.014985      2.000000
  0.036706 -0.021192  0.014985      6.000000
  0.073411 -0.042384  0.014985      6.000000
  0.110117 -0.063576  0.014985      6.000000
  0.146823 -0.084768  0.014985      6.000000
  0.183529 -0.105960  0.014985      6.000000
 -0.183529  0.105960  0.014985      6.000000
 -0.146823  0.084768  0.014985      6.000000
 -0.110117  0.063576  0.014985      6.000000
 -0.073411  0.042384  0.014985      6.000000
 -0.036706  0.021192  0.014985      6.000000
  0.073411  0.000000  0.014985     12.000000
  0.110117 -0.021192  0.014985     12.000000
  0.146823 -0.042384  0.014985     12.000000
  0.183529 -0.063576  0.014985     12.000000
 -0.183529  0.148344  0.014985     12.000000
 -0.146823  0.127152  0.014985     12.000000
 -0.110117  0.105960  0.014985     12.000000
 -0.073411  0.084768  0.014985     12.000000
  0.146823  0.000000  0.014985     12.000000
  0.183529 -0.021192  0.014985     12.000000
 -0.183529  0.190729  0.014985     12.000000
 -0.146823  0.169537  0.014985     12.000000
 -0.110117  0.148344  0.014985     12.000000
 -0.183529  0.233113  0.014985     12.000000
 -0.146823  0.211921  0.014985     12.000000
  0.000000  0.000000  0.022478      2.000000
  0.036706 -0.021192  0.022478      6.000000
  0.073411 -0.042384  0.022478      6.000000
  0.110117 -0.063576  0.022478      6.000000
  0.146823 -0.084768  0.022478      6.000000
  0.183529 -0.105960  0.022478      6.000000
 -0.183529  0.105960  0.022478      6.000000
 -0.146823  0.084768  0.022478      6.000000
 -0.110117  0.063576  0.022478      6.000000
 -0.073411  0.042384  0.022478      6.000000
 -0.036706  0.021192  0.022478      6.000000
  0.073411  0.000000  0.022478     12.000000
  0.110117 -0.021192  0.022478     12.000000
  0.146823 -0.042384  0.022478     12.000000
  0.183529 -0.063576  0.022478     12.000000
 -0.183529  0.148344  0.022478     12.000000
 -0.146823  0.127152  0.022478     12.000000
 -0.110117  0.105960  0.022478     12.000000
 -0.073411  0.084768  0.022478     12.000000
  0.146823  0.000000  0.022478     12.000000
  0.183529 -0.021192  0.022478     12.000000
 -0.183529  0.190729  0.022478     12.000000
 -0.146823  0.169537  0.022478     12.000000
 -0.110117  0.148344  0.022478     12.000000
 -0.183529  0.233113  0.022478     12.000000
 -0.146823  0.211921  0.022478     12.000000
  0.000000  0.000000  0.029970      2.000000
  0.036706 -0.021192  0.029970      6.000000
  0.073411 -0.042384  0.029970      6.000000
  0.110117 -0.063576  0.029970      6.000000
  0.146823 -0.084768  0.029970      6.000000
  0.183529 -0.105960  0.029970      6.000000
 -0.183529  0.105960  0.029970      6.000000
 -0.146823  0.084768  0.029970      6.000000
 -0.110117  0.063576  0.029970      6.000000
 -0.073411  0.042384  0.029970      6.000000
 -0.036706  0.021192  0.029970      6.000000
  0.073411  0.000000  0.029970     12.000000
  0.110117 -0.021192  0.029970     12.000000
  0.146823 -0.042384  0.029970     12.000000
  0.183529 -0.063576  0.029970     12.000000
 -0.183529  0.148344  0.029970     12.000000
 -0.146823  0.127152  0.029970     12.000000
 -0.110117  0.105960  0.029970     12.000000
 -0.073411  0.084768  0.029970     12.000000
  0.146823  0.000000  0.029970     12.000000
  0.183529 -0.021192  0.029970     12.000000
 -0.183529  0.190729  0.029970     12.000000
 -0.146823  0.169537  0.029970     12.000000
 -0.110117  0.148344  0.029970     12.000000
 -0.183529  0.233113  0.029970     12.000000
 -0.146823  0.211921  0.029970     12.000000
  0.000000  0.000000  0.037463      2.000000
  0.036706 -0.021192  0.037463      6.000000
  0.073411 -0.042384  0.037463      6.000000
  0.110117 -0.063576  0.037463      6.000000
  0.146823 -0.084768  0.037463      6.000000
  0.183529 -0.105960  0.037463      6.000000
 -0.183529  0.105960  0.037463      6.000000
 -0.146823  0.084768  0.037463      6.000000
 -0.110117  0.063576  0.037463      6.000000
 -0.073411  0.042384  0.037463      6.000000
 -0.036706  0.021192  0.037463      6.000000
  0.073411  0.000000  0.037463     12.000000
  0.110117 -0.021192  0.037463     12.000000
  0.146823 -0.042384  0.037463     12.000000
  0.183529 -0.063576  0.037463     12.000000
 -0.183529  0.148344  0.037463     12.000000
 -0.146823  0.127152  0.037463     12.000000
 -0.110117  0.105960  0.037463     12.000000
 -0.073411  0.084768  0.037463     12.000000
  0.146823  0.000000  0.037463     12.000000
  0.183529 -0.021192  0.037463     12.000000
 -0.183529  0.190729  0.037463     12.000000
 -0.146823  0.169537  0.037463     12.000000
 -0.110117  0.148344  0.037463     12.000000
 -0.183529  0.233113  0.037463     12.000000
 -0.146823  0.211921  0.037463     12.000000
 


--------------------------------------------------------------------------------------------------------




 Dimension of arrays:
   k-points           NKPTS =    146   k-points in BZ     NKDIM =    146   number of bands    NBANDS=     40
   number of dos      NEDOS =    301   number of ions     NIONS =      6
   non local maximal  LDIM  =      6   non local SUM 2l+1 LMDIM =     18
   total plane-waves  NPLWV =  29160
   max r-space proj   IRMAX =      1   max aug-charges    IRDMAX=  14863
   dimension x,y,z NGX =    18 NGY =   18 NGZ =   90
   dimension x,y,z NGXF=    36 NGYF=   36 NGZF=  180
   support grid    NGXF=    36 NGYF=   36 NGZF=  180
   ions per type =               6
   NGX,Y,Z   is equivalent  to a cutoff of  12.08, 12.08, 12.33 a.u.
   NGXF,Y,Z  is equivalent  to a cutoff of  24.16, 24.16, 24.66 a.u.

 SYSTEM =  unknown system                          
 POSCAR =  Ni1 str #: 8                            

 Startparameter for this run:
   NWRITE =      2    write-flag & timer
   PREC   = accura    normal or accurate (medium, high low for compatibility)
   ISTART =      0    job   : 0-new  1-cont  2-samecut
   ICHARG =      2    charge: 1-file 2-atom 10-const
   ISPIN  =      2    spin polarized calculation?
   LNONCOLLINEAR =      F non collinear calculations
   LSORBIT =      F    spin-orbit coupling
   INIWAV =      1    electr: 0-lowe 1-rand  2-diag
   LASPH  =      T    aspherical Exc in radial PAW
   METAGGA=      F    non-selfconsistent MetaGGA calc.

 Electronic Relaxation 1
   ENCUT  =  520.0 eV  38.22 Ry    6.18 a.u.   4.61  4.61 22.56*2*pi/ulx,y,z
   ENINI  =  520.0     initial cutoff
   ENAUG  =  544.6 eV  augmentation charge cutoff
   NELM   =     60;   NELMIN=  2; NELMDL= -5     # of ELM steps 
   EDIFF  = 0.1E-05   stopping-criterion for ELM
   LREAL  =      F    real-space projection
   NLSPLINE    = F    spline interpolate recip. space projectors
   LCOMPAT=      F    compatible to vasp.4.4
   GGA_COMPAT  = T    GGA compatible to vasp.4.4-vasp.4.6
   LMAXPAW     = -100 max onsite density
   LMAXMIX     =    2 max onsite mixed and CHGCAR
   VOSKOWN=      0    Vosko Wilk Nusair interpolation
   ROPT   =    0.00000
 Ionic relaxation
   EDIFFG = 0.1E-04   stopping-criterion for IOM
   NSW    =      0    number of steps for IOM
   NBLOCK =      1;   KBLOCK =      1    inner block; outer block 
   IBRION =     -1    ionic relax: 0-MD 1-quasi-New 2-CG
   NFREE  =      1    steps in history (QN), initial steepest desc. (CG)
   ISIF   =      2    stress and relaxation
   IWAVPR =     10    prediction:  0-non 1-charg 2-wave 3-comb
   ISYM   =      2    0-nonsym 1-usesym 2-fastsym
   LCORR  =      T    Harris-Foulkes like correction to forces

   POTIM  = 0.5000    time-step for ionic-motion
   TEIN   =    0.0    initial temperature
   TEBEG  =    0.0;   TEEND  =   0.0 temperature during run
   SMASS  =  -3.00    Nose mass-parameter (am)
   estimated Nose-frequenzy (Omega)   =  0.10E-29 period in steps =****** mass=  -0.140E-27a.u.
   SCALEE = 1.0000    scale energy and forces
   NPACO  =    256;   APACO  = 16.0  distance and # of slots for P.C.
   PSTRESS=    0.0 pullay stress

  Mass of Ions in am
   POMASS =  58.69
  Ionic Valenz
   ZVAL   =  10.00
  Atomic Wigner-Seitz radii
   RWIGS  =  -1.00
  virtual crystal weights 
   VCA    =   1.00
   NELECT =      60.0000    total number of electrons
   NUPDOWN=      -1.0000    fix difference up-down

 DOS related values:
   EMIN   =  10.00;   EMAX   =-10.00  energy-range for DOS
   EFERMI =   0.00
   ISMEAR =     1;   SIGMA  =   0.20  broadening in eV -4-tet -1-fermi 0-gaus

 Electronic relaxation 2 (details)
   IALGO  =     38    algorithm
   LDIAG  =      T    sub-space diagonalisation (order eigenvalues)
   LSUBROT=      F    optimize rotation matrix (better conditioning)
   TURBO    =      0    0=normal 1=particle mesh
   IRESTART =      0    0=no restart 2=restart with 2 vectors
   NREBOOT  =      0    no. of reboots
   NMIN     =      0    reboot dimension
   EREF     =   0.00    reference energy to select bands
   IMIX   =      4    mixing-type and parameters
     AMIX     =   0.40;   BMIX     =  1.00
     AMIX_MAG =   1.60;   BMIX_MAG =  1.00
     AMIN     =   0.10
     WC   =   100.;   INIMIX=   1;  MIXPRE=   1;  MAXMIX= -45

 Intra band minimization:
   WEIMIN = 0.0000     energy-eigenvalue tresh-hold
   EBREAK =  0.62E-08  absolut break condition
   DEPER  =   0.30     relativ break condition  

   TIME   =   0.40     timestep for ELM

  volume/ion in A,a.u.               =      10.74        72.49
  Fermi-wavevector in a.u.,A,eV,Ry     =   1.598477  3.020684 34.764640  2.555129
  Thomas-Fermi vector in A             =   2.695921
 
 Write flags
   LWAVE        =      F    write WAVECAR
   LDOWNSAMPLE  =      F    k-point downsampling of WAVECAR
   LCHARG       =      F    write CHGCAR
   LVTOT        =      F    write LOCPOT, total local potential
   LVHAR        =      F    write LOCPOT, Hartree potential only
   LELF         =      F    write electronic localiz. function (ELF)
   LORBIT       =     11    0 simple, 1 ext, 2 COOP (PROOUT), +10 PAW based schemes


 Dipole corrections
   LMONO  =      F    monopole corrections only (constant potential shift)
   LDIPOL =      F    correct potential (dipole corrections)
   IDIPOL =      0    1-x, 2-y, 3-z, 4-all directions 
   EPSILON=  1.0000000 bulk dielectric constant

 Exchange correlation treatment:
   GGA     =    --    GGA type
   LEXCH   =     8    internal setting for exchange type
   VOSKOWN=      0    Vosko Wilk Nusair interpolation
   LHFCALC =     F    Hartree Fock is set to
   LHFONE  =     F    Hartree Fock one center treatment
   AEXX    =    0.0000 exact exchange contribution

 Linear response parameters
   LEPSILON=     F    determine dielectric tensor
   LRPA    =     F    only Hartree local field effects (RPA)
   LNABLA  =     F    use nabla operator in PAW spheres
   LVEL    =     F    velocity operator in full k-point grid
   LINTERFAST=   F  fast interpolation
   KINTER  =     0    interpolate to denser k-point grid
   CSHIFT  =0.1000    complex shift for real part using Kramers Kronig
   OMEGAMAX=  -1.0    maximum frequency
   DEG_THRESHOLD= 0.2000000E-02 threshold for treating states as degnerate
   RTIME   =   -0.100 relaxation time in fs
  (WPLASMAI=    0.000 imaginary part of plasma frequency in eV, 0.658/RTIME)
   DFIELD  = 0.0000000 0.0000000 0.0000000 field for delta impulse in time
 
 Orbital magnetization related:
   ORBITALMAG=     F  switch on orbital magnetization
   LCHIMAG   =     F  perturbation theory with respect to B field
   DQ        =  0.001000  dq finite difference perturbation B field
   LLRAUG    =     F  two centre corrections for induced B field



--------------------------------------------------------------------------------------------------------


 Static calculation
 charge density and potential will be updated during run
 spin polarized calculation
 Variant of blocked Davidson
 Davidson routine will perform the subspace rotation
 perform sub-space diagonalisation
    after iterative eigenvector-optimisation
 modified Broyden-mixing scheme, WC =      100.0
 initial mixing is a Kerker type mixing with AMIX =  0.4000 and BMIX =      1.0000
 Hartree-type preconditioning will be used
 using additional bands           10
 reciprocal scheme for non local part
 use partial core corrections
 calculate Harris-corrections to forces 
   (improved forces if not selfconsistent)
 use gradient corrections 
 use of overlap-Matrix (Vanderbilt PP)
 Methfessel and Paxton  Order N= 1 SIGMA  =   0.20


--------------------------------------------------------------------------------------------------------


  energy-cutoff  :      520.00
  volume of cell :       64.45
      direct lattice vectors                 reciprocal lattice vectors
     2.476700100  0.000000000  0.000000000     0.403763056 -0.233112700  0.000000006
     1.238350000  2.144885200  0.000000000     0.000000000  0.466225418  0.000000001
    -0.000000200 -0.000000020 12.133302600     0.000000000  0.000000000  0.082417791

  length of vectors
     2.476700100  2.476700071 12.133302600     0.466225413  0.466225418  0.082417791


 
 k-points in units of 2pi/SCALE and weight: k-points                                
   0.00000000  0.00000000  0.00000000       0.001
   0.03670573 -0.02119206  0.00000000       0.005
   0.07341146 -0.04238413  0.00000000       0.005
   0.11011720 -0.06357619  0.00000000       0.005
   0.14682293 -0.08476825  0.00000000       0.005
   0.18352866 -0.10596032  0.00000000       0.005
   0.07341146  0.00000000  0.00000000       0.005
   0.11011720 -0.02119206  0.00000000       0.009
   0.14682293 -0.04238413  0.00000000       0.009
   0.18352866 -0.06357619  0.00000000       0.009
  -0.18352866  0.14834445 -0.00000000       0.005
   0.14682293  0.00000000  0.00000000       0.005
   0.18352866 -0.02119206  0.00000000       0.009
  -0.18352866  0.19072858 -0.00000000       0.009
  -0.18352866  0.23311270 -0.00000000       0.005
  -0.14682293  0.21192064 -0.00000000       0.005
   0.00000000  0.00000000  0.00749253       0.002
   0.03670573 -0.02119206  0.00749253       0.005
   0.07341146 -0.04238413  0.00749253       0.005
   0.11011720 -0.06357619  0.00749253       0.005
   0.14682293 -0.08476825  0.00749253       0.005
   0.18352866 -0.10596032  0.00749253       0.005
  -0.18352866  0.10596032  0.00749252       0.005
  -0.14682293  0.08476825  0.00749252       0.005
  -0.11011720  0.06357619  0.00749252       0.005
  -0.07341146  0.04238413  0.00749253       0.005
  -0.03670573  0.02119206  0.00749253       0.005
   0.07341146  0.00000000  0.00749253       0.009
   0.11011720 -0.02119206  0.00749253       0.009
   0.14682293 -0.04238413  0.00749253       0.009
   0.18352866 -0.06357619  0.00749253       0.009
  -0.18352866  0.14834445  0.00749252       0.009
  -0.14682293  0.12715238  0.00749252       0.009
  -0.11011720  0.10596032  0.00749252       0.009
  -0.07341146  0.08476826  0.00749253       0.009
   0.14682293  0.00000000  0.00749253       0.009
   0.18352866 -0.02119206  0.00749253       0.009
  -0.18352866  0.19072858  0.00749252       0.009
  -0.14682293  0.16953651  0.00749252       0.009
  -0.11011720  0.14834445  0.00749252       0.009
  -0.18352866  0.23311270  0.00749252       0.009
  -0.14682293  0.21192064  0.00749252       0.009
   0.00000000  0.00000000  0.01498505       0.002
   0.03670573 -0.02119206  0.01498505       0.005
   0.07341146 -0.04238413  0.01498505       0.005
   0.11011720 -0.06357619  0.01498505       0.005
   0.14682293 -0.08476825  0.01498506       0.005
   0.18352866 -0.10596032  0.01498506       0.005
  -0.18352866  0.10596032  0.01498505       0.005
  -0.14682293  0.08476825  0.01498505       0.005
  -0.11011720  0.06357619  0.01498505       0.005
  -0.07341146  0.04238413  0.01498505       0.005
  -0.03670573  0.02119206  0.01498505       0.005
   0.07341146  0.00000000  0.01498505       0.009
   0.11011720 -0.02119206  0.01498505       0.009
   0.14682293 -0.04238413  0.01498506       0.009
   0.18352866 -0.06357619  0.01498506       0.009
  -0.18352866  0.14834445  0.01498505       0.009
  -0.14682293  0.12715238  0.01498505       0.009
  -0.11011720  0.10596032  0.01498505       0.009
  -0.07341146  0.08476826  0.01498505       0.009
   0.14682293  0.00000000  0.01498506       0.009
   0.18352866 -0.02119206  0.01498506       0.009
  -0.18352866  0.19072858  0.01498505       0.009
  -0.14682293  0.16953651  0.01498505       0.009
  -0.11011720  0.14834445  0.01498505       0.009
  -0.18352866  0.23311270  0.01498505       0.009
  -0.14682293  0.21192064  0.01498505       0.009
   0.00000000  0.00000000  0.02247758       0.002
   0.03670573 -0.02119206  0.02247758       0.005
   0.07341146 -0.04238413  0.02247758       0.005
   0.11011720 -0.06357619  0.02247758       0.005
   0.14682293 -0.08476825  0.02247758       0.005
   0.18352866 -0.10596032  0.02247758       0.005
  -0.18352866  0.10596032  0.02247758       0.005
  -0.14682293  0.08476825  0.02247758       0.005
  -0.11011720  0.06357619  0.02247758       0.005
  -0.07341146  0.04238413  0.02247758       0.005
  -0.03670573  0.02119206  0.02247758       0.005
   0.07341146  0.00000000  0.02247758       0.009
   0.11011720 -0.02119206  0.02247758       0.009
   0.14682293 -0.04238413  0.02247758       0.009
   0.18352866 -0.06357619  0.02247758       0.009
  -0.18352866  0.14834445  0.02247758       0.009
  -0.14682293  0.12715238  0.02247758       0.009
  -0.11011720  0.10596032  0.02247758       0.009
  -0.07341146  0.08476826  0.02247758       0.009
   0.14682293  0.00000000  0.02247758       0.009
   0.18352866 -0.02119206  0.02247758       0.009
  -0.18352866  0.19072858  0.02247758       0.009
  -0.14682293  0.16953651  0.02247758       0.009
  -0.11011720  0.14834445  0.02247758       0.009
  -0.18352866  0.23311270  0.02247758       0.009
  -0.14682293  0.21192064  0.02247758       0.009
   0.00000000  0.00000000  0.02997011       0.002
   0.03670573 -0.02119206  0.02997011       0.005
   0.07341146 -0.04238413  0.02997011       0.005
   0.11011720 -0.06357619  0.02997011       0.005
   0.14682293 -0.08476825  0.02997011       0.005
   0.18352866 -0.10596032  0.02997011       0.005
  -0.18352866  0.10596032  0.02997010       0.005
  -0.14682293  0.08476825  0.02997010       0.005
  -0.11011720  0.06357619  0.02997010       0.005
  -0.07341146  0.04238413  0.02997010       0.005
  -0.03670573  0.02119206  0.02997011       0.005
   0.07341146  0.00000000  0.02997011       0.009
   0.11011720 -0.02119206  0.02997011       0.009
   0.14682293 -0.04238413  0.02997011       0.009
   0.18352866 -0.06357619  0.02997011       0.009
  -0.18352866  0.14834445  0.02997010       0.009
  -0.14682293  0.12715238  0.02997010       0.009
  -0.11011720  0.10596032  0.02997010       0.009
  -0.07341146  0.08476826  0.02997010       0.009
   0.14682293  0.00000000  0.02997011       0.009
   0.18352866 -0.02119206  0.02997011       0.009
  -0.18352866  0.19072858  0.02997010       0.009
  -0.14682293  0.16953651  0.02997010       0.009
  -0.11011720  0.14834445  0.02997010       0.009
  -0.18352866  0.23311270  0.02997010       0.009
  -0.14682293  0.21192064  0.02997010       0.009
   0.00000000  0.00000000  0.03746263       0.002
   0.03670573 -0.02119206  0.03746263       0.005
   0.07341146 -0.04238413  0.03746263       0.005
   0.11011720 -0.06357619  0.03746263       0.005
   0.14682293 -0.08476825  0.03746263       0.005
   0.18352866 -0.10596032  0.03746264       0.005
  -0.18352866  0.10596032  0.03746263       0.005
  -0.14682293  0.08476825  0.03746263       0.005
  -0.11011720  0.06357619  0.03746263       0.005
  -0.07341146  0.04238413  0.03746263       0.005
  -0.03670573  0.02119206  0.03746263       0.005
   0.07341146  0.00000000  0.03746263       0.009
   0.11011720 -0.02119206  0.03746263       0.009
   0.14682293 -0.04238413  0.03746263       0.009
   0.18352866 -0.06357619  0.03746264       0.009
  -0.18352866  0.14834445  0.03746263       0.009
  -0.14682293  0.12715238  0.03746263       0.009
  -0.11011720  0.10596032  0.03746263       0.009
  -0.07341146  0.08476826  0.03746263       0.009
   0.14682293  0.00000000  0.03746263       0.009
   0.18352866 -0.02119206  0.03746264       0.009
  -0.18352866  0.19072858  0.03746263       0.009
  -0.14682293  0.16953651  0.03746263       0.009
  -0.11011720  0.14834445  0.03746263       0.009
  -0.18352866  0.23311270  0.03746263       0.009
  -0.14682293  0.21192064  0.03746263       0.009
 
 k-points in reciprocal lattice and weights: k-points                                
   0.00000000  0.00000000  0.00000000       0.001
   0.09090909  0.00000000  0.00000000       0.005
   0.18181818  0.00000000  0.00000000       0.005
   0.27272727  0.00000000  0.00000000       0.005
   0.36363636  0.00000000  0.00000000       0.005
   0.45454545 -0.00000000  0.00000000       0.005
   0.18181818  0.09090909  0.00000000       0.005
   0.27272727  0.09090909  0.00000000       0.009
   0.36363636  0.09090909 -0.00000000       0.009
   0.45454545  0.09090909  0.00000000       0.009
  -0.45454545  0.09090909  0.00000000       0.005
   0.36363636  0.18181818  0.00000000       0.005
   0.45454545  0.18181818  0.00000000       0.009
  -0.45454545  0.18181818 -0.00000000       0.009
  -0.45454545  0.27272727 -0.00000000       0.005
  -0.36363636  0.27272727  0.00000000       0.005
   0.00000000  0.00000000  0.09090909       0.002
   0.09090909  0.00000000  0.09090909       0.005
   0.18181818  0.00000000  0.09090909       0.005
   0.27272727  0.00000000  0.09090909       0.005
   0.36363636  0.00000000  0.09090909       0.005
   0.45454545 -0.00000000  0.09090909       0.005
  -0.45454545  0.00000000  0.09090909       0.005
  -0.36363636  0.00000000  0.09090909       0.005
  -0.27272727  0.00000000  0.09090909       0.005
  -0.18181818  0.00000000  0.09090909       0.005
  -0.09090909  0.00000000  0.09090909       0.005
   0.18181818  0.09090909  0.09090909       0.009
   0.27272727  0.09090909  0.09090909       0.009
   0.36363636  0.09090909  0.09090909       0.009
   0.45454545  0.09090909  0.09090909       0.009
  -0.45454545  0.09090909  0.09090909       0.009
  -0.36363636  0.09090909  0.09090909       0.009
  -0.27272727  0.09090909  0.09090909       0.009
  -0.18181818  0.09090909  0.09090909       0.009
   0.36363636  0.18181818  0.09090909       0.009
   0.45454545  0.18181818  0.09090909       0.009
  -0.45454545  0.18181818  0.09090909       0.009
  -0.36363636  0.18181818  0.09090909       0.009
  -0.27272727  0.18181818  0.09090909       0.009
  -0.45454545  0.27272727  0.09090909       0.009
  -0.36363636  0.27272727  0.09090909       0.009
   0.00000000  0.00000000  0.18181818       0.002
   0.09090909  0.00000000  0.18181818       0.005
   0.18181818  0.00000000  0.18181818       0.005
   0.27272727  0.00000000  0.18181818       0.005
   0.36363636  0.00000000  0.18181818       0.005
   0.45454545 -0.00000000  0.18181818       0.005
  -0.45454545  0.00000000  0.18181818       0.005
  -0.36363636  0.00000000  0.18181818       0.005
  -0.27272727  0.00000000  0.18181818       0.005
  -0.18181818  0.00000000  0.18181818       0.005
  -0.09090909  0.00000000  0.18181818       0.005
   0.18181818  0.09090909  0.18181818       0.009
   0.27272727  0.09090909  0.18181818       0.009
   0.36363636  0.09090909  0.18181818       0.009
   0.45454545  0.09090909  0.18181818       0.009
  -0.45454545  0.09090909  0.18181818       0.009
  -0.36363636  0.09090909  0.18181818       0.009
  -0.27272727  0.09090909  0.18181818       0.009
  -0.18181818  0.09090909  0.18181818       0.009
   0.36363636  0.18181818  0.18181818       0.009
   0.45454545  0.18181818  0.18181818       0.009
  -0.45454545  0.18181818  0.18181818       0.009
  -0.36363636  0.18181818  0.18181818       0.009
  -0.27272727  0.18181818  0.18181818       0.009
  -0.45454545  0.27272727  0.18181818       0.009
  -0.36363636  0.27272727  0.18181818       0.009
   0.00000000  0.00000000  0.27272727       0.002
   0.09090909  0.00000000  0.27272727       0.005
   0.18181818  0.00000000  0.27272727       0.005
   0.27272727  0.00000000  0.27272727       0.005
   0.36363636  0.00000000  0.27272727       0.005
   0.45454545 -0.00000000  0.27272727       0.005
  -0.45454545  0.00000000  0.27272727       0.005
  -0.36363636  0.00000000  0.27272727       0.005
  -0.27272727  0.00000000  0.27272727       0.005
  -0.18181818  0.00000000  0.27272727       0.005
  -0.09090909  0.00000000  0.27272727       0.005
   0.18181818  0.09090909  0.27272727       0.009
   0.27272727  0.09090909  0.27272727       0.009
   0.36363636  0.09090909  0.27272727       0.009
   0.45454545  0.09090909  0.27272727       0.009
  -0.45454545  0.09090909  0.27272727       0.009
  -0.36363636  0.09090909  0.27272727       0.009
  -0.27272727  0.09090909  0.27272727       0.009
  -0.18181818  0.09090909  0.27272727       0.009
   0.36363636  0.18181818  0.27272727       0.009
   0.45454545  0.18181818  0.27272727       0.009
  -0.45454545  0.18181818  0.27272727       0.009
  -0.36363636  0.18181818  0.27272727       0.009
  -0.27272727  0.18181818  0.27272727       0.009
  -0.45454545  0.27272727  0.27272727       0.009
  -0.36363636  0.27272727  0.27272727       0.009
   0.00000000  0.00000000  0.36363636       0.002
   0.09090909  0.00000000  0.36363636       0.005
   0.18181818  0.00000000  0.36363636       0.005
   0.27272727  0.00000000  0.36363636       0.005
   0.36363636  0.00000000  0.36363636       0.005
   0.45454545 -0.00000000  0.36363636       0.005
  -0.45454545  0.00000000  0.36363636       0.005
  -0.36363636  0.00000000  0.36363636       0.005
  -0.27272727  0.00000000  0.36363636       0.005
  -0.18181818  0.00000000  0.36363636       0.005
  -0.09090909  0.00000000  0.36363636       0.005
   0.18181818  0.09090909  0.36363636       0.009
   0.27272727  0.09090909  0.36363636       0.009
   0.36363636  0.09090909  0.36363636       0.009
   0.45454545  0.09090909  0.36363636       0.009
  -0.45454545  0.09090909  0.36363636       0.009
  -0.36363636  0.09090909  0.36363636       0.009
  -0.27272727  0.09090909  0.36363636       0.009
  -0.18181818  0.09090909  0.36363636       0.009
   0.36363636  0.18181818  0.36363636       0.009
   0.45454545  0.18181818  0.36363636       0.009
  -0.45454545  0.18181818  0.36363636       0.009
  -0.36363636  0.18181818  0.36363636       0.009
  -0.27272727  0.18181818  0.36363636       0.009
  -0.45454545  0.27272727  0.36363636       0.009
  -0.36363636  0.27272727  0.36363636       0.009
   0.00000000  0.00000000  0.45454545       0.002
   0.09090909  0.00000000  0.45454545       0.005
   0.18181818  0.00000000  0.45454545       0.005
   0.27272727  0.00000000  0.45454545       0.005
   0.36363636  0.00000000  0.45454545       0.005
   0.45454545 -0.00000000  0.45454545       0.005
  -0.45454545  0.00000000  0.45454545       0.005
  -0.36363636  0.00000000  0.45454545       0.005
  -0.27272727  0.00000000  0.45454545       0.005
  -0.18181818  0.00000000  0.45454545       0.005
  -0.09090909  0.00000000  0.45454545       0.005
   0.18181818  0.09090909  0.45454545       0.009
   0.27272727  0.09090909  0.45454545       0.009
   0.36363636  0.09090909  0.45454545       0.009
   0.45454545  0.09090909  0.45454545       0.009
  -0.45454545  0.09090909  0.45454545       0.009
  -0.36363636  0.09090909  0.45454545       0.009
  -0.27272727  0.09090909  0.45454545       0.009
  -0.18181818  0.09090909  0.45454545       0.009
   0.36363636  0.18181818  0.45454545       0.009
   0.45454545  0.18181818  0.45454545       0.009
  -0.45454545  0.18181818  0.45454545       0.009
  -0.36363636  0.18181818  0.45454545       0.009
  -0.27272727  0.18181818  0.45454545       0.009
  -0.45454545  0.27272727  0.45454545       0.009
  -0.36363636  0.27272727  0.45454545       0.009
 
 position of ions in fractional coordinates (direct lattice) 
   0.00000000  0.00000000  0.00000000
   0.33333333  0.33333333  0.16666667
   0.66666667  0.66666667  0.33333333
   0.00000000  0.00000000  0.50000000
   0.33333333  0.33333333  0.66666667
   0.66666667  0.66666667  0.83333333
 
 position of ions in cartesian coordinates  (Angst):
   0.00000000  0.00000000  0.00000000
   1.23835000  0.71496173  2.02221710
   2.47670000  1.42992346  4.04443420
  -0.00000010 -0.00000001  6.06665130
   1.23834990  0.71496172  8.08886840
   2.47669990  1.42992345 10.11108550
 


--------------------------------------------------------------------------------------------------------


 k-point  1 :   0.0000 0.0000 0.0000  plane waves:    1719
 k-point  2 :   0.0909 0.0000 0.0000  plane waves:    1748
 k-point  3 :   0.1818 0.0000 0.0000  plane waves:    1752
 k-point  4 :   0.2727 0.0000 0.0000  plane waves:    1752
 k-point  5 :   0.3636 0.0000 0.0000  plane waves:    1746
 k-point  6 :   0.4545-0.0000 0.0000  plane waves:    1738
 k-point  7 :   0.1818 0.0909 0.0000  plane waves:    1753
 k-point  8 :   0.2727 0.0909 0.0000  plane waves:    1748
 k-point  9 :   0.3636 0.0909-0.0000  plane waves:    1754
 k-point 10 :   0.4545 0.0909 0.0000  plane waves:    1719
 k-point 11 :  -0.4545 0.0909 0.0000  plane waves:    1726
 k-point 12 :   0.3636 0.1818 0.0000  plane waves:    1737
 k-point 13 :   0.4545 0.1818 0.0000  plane waves:    1729
 k-point 14 :  -0.4545 0.1818-0.0000  plane waves:    1725
 k-point 15 :  -0.4545 0.2727-0.0000  plane waves:    1717
 k-point 16 :  -0.3636 0.2727 0.0000  plane waves:    1702
 k-point 17 :   0.0000 0.0000 0.0909  plane waves:    1719
 k-point 18 :   0.0909 0.0000 0.0909  plane waves:    1755
 k-point 19 :   0.1818 0.0000 0.0909  plane waves:    1759
 k-point 20 :   0.2727 0.0000 0.0909  plane waves:    1745
 k-point 21 :   0.3636 0.0000 0.0909  plane waves:    1743
 k-point 22 :   0.4545-0.0000 0.0909  plane waves:    1729
 k-point 23 :  -0.4545 0.0000 0.0909  plane waves:    1729
 k-point 24 :  -0.3636 0.0000 0.0909  plane waves:    1743
 k-point 25 :  -0.2727 0.0000 0.0909  plane waves:    1745
 k-point 26 :  -0.1818 0.0000 0.0909  plane waves:    1759
 k-point 27 :  -0.0909 0.0000 0.0909  plane waves:    1755
 k-point 28 :   0.1818 0.0909 0.0909  plane waves:    1747
 k-point 29 :   0.2727 0.0909 0.0909  plane waves:    1751
 k-point 30 :   0.3636 0.0909 0.0909  plane waves:    1749
 k-point 31 :   0.4545 0.0909 0.0909  plane waves:    1725
 k-point 32 :  -0.4545 0.0909 0.0909  plane waves:    1729
 k-point 33 :  -0.3636 0.0909 0.0909  plane waves:    1725
 k-point 34 :  -0.2727 0.0909 0.0909  plane waves:    1749
 k-point 35 :  -0.1818 0.0909 0.0909  plane waves:    1751
 k-point 36 :   0.3636 0.1818 0.0909  plane waves:    1740
 k-point 37 :   0.4545 0.1818 0.0909  plane waves:    1729
 k-point 38 :  -0.4545 0.1818 0.0909  plane waves:    1722
 k-point 39 :  -0.3636 0.1818 0.0909  plane waves:    1722
 k-point 40 :  -0.2727 0.1818 0.0909  plane waves:    1729
 k-point 41 :  -0.4545 0.2727 0.0909  plane waves:    1714
 k-point 42 :  -0.3636 0.2727 0.0909  plane waves:    1708
 k-point 43 :   0.0000 0.0000 0.1818  plane waves:    1737
 k-point 44 :   0.0909 0.0000 0.1818  plane waves:    1755
 k-point 45 :   0.1818 0.0000 0.1818  plane waves:    1754
 k-point 46 :   0.2727 0.0000 0.1818  plane waves:    1753
 k-point 47 :   0.3636 0.0000 0.1818  plane waves:    1737
 k-point 48 :   0.4545-0.0000 0.1818  plane waves:    1729
 k-point 49 :  -0.4545 0.0000 0.1818  plane waves:    1729
 k-point 50 :  -0.3636 0.0000 0.1818  plane waves:    1737
 k-point 51 :  -0.2727 0.0000 0.1818  plane waves:    1753
 k-point 52 :  -0.1818 0.0000 0.1818  plane waves:    1754
 k-point 53 :  -0.0909 0.0000 0.1818  plane waves:    1755
 k-point 54 :   0.1818 0.0909 0.1818  plane waves:    1750
 k-point 55 :   0.2727 0.0909 0.1818  plane waves:    1753
 k-point 56 :   0.3636 0.0909 0.1818  plane waves:    1747
 k-point 57 :   0.4545 0.0909 0.1818  plane waves:    1725
 k-point 58 :  -0.4545 0.0909 0.1818  plane waves:    1732
 k-point 59 :  -0.3636 0.0909 0.1818  plane waves:    1725
 k-point 60 :  -0.2727 0.0909 0.1818  plane waves:    1747
 k-point 61 :  -0.1818 0.0909 0.1818  plane waves:    1753
 k-point 62 :   0.3636 0.1818 0.1818  plane waves:    1737
 k-point 63 :   0.4545 0.1818 0.1818  plane waves:    1730
 k-point 64 :  -0.4545 0.1818 0.1818  plane waves:    1726
 k-point 65 :  -0.3636 0.1818 0.1818  plane waves:    1726
 k-point 66 :  -0.2727 0.1818 0.1818  plane waves:    1730
 k-point 67 :  -0.4545 0.2727 0.1818  plane waves:    1714
 k-point 68 :  -0.3636 0.2727 0.1818  plane waves:    1706
 k-point 69 :   0.0000 0.0000 0.2727  plane waves:    1737
 k-point 70 :   0.0909 0.0000 0.2727  plane waves:    1756
 k-point 71 :   0.1818 0.0000 0.2727  plane waves:    1752
 k-point 72 :   0.2727 0.0000 0.2727  plane waves:    1753
 k-point 73 :   0.3636 0.0000 0.2727  plane waves:    1734
 k-point 74 :   0.4545-0.0000 0.2727  plane waves:    1728
 k-point 75 :  -0.4545 0.0000 0.2727  plane waves:    1728
 k-point 76 :  -0.3636 0.0000 0.2727  plane waves:    1734
 k-point 77 :  -0.2727 0.0000 0.2727  plane waves:    1753
 k-point 78 :  -0.1818 0.0000 0.2727  plane waves:    1752
 k-point 79 :  -0.0909 0.0000 0.2727  plane waves:    1756
 k-point 80 :   0.1818 0.0909 0.2727  plane waves:    1748
 k-point 81 :   0.2727 0.0909 0.2727  plane waves:    1749
 k-point 82 :   0.3636 0.0909 0.2727  plane waves:    1740
 k-point 83 :   0.4545 0.0909 0.2727  plane waves:    1729
 k-point 84 :  -0.4545 0.0909 0.2727  plane waves:    1734
 k-point 85 :  -0.3636 0.0909 0.2727  plane waves:    1729
 k-point 86 :  -0.2727 0.0909 0.2727  plane waves:    1740
 k-point 87 :  -0.1818 0.0909 0.2727  plane waves:    1749
 k-point 88 :   0.3636 0.1818 0.2727  plane waves:    1742
 k-point 89 :   0.4545 0.1818 0.2727  plane waves:    1725
 k-point 90 :  -0.4545 0.1818 0.2727  plane waves:    1723
 k-point 91 :  -0.3636 0.1818 0.2727  plane waves:    1723
 k-point 92 :  -0.2727 0.1818 0.2727  plane waves:    1725
 k-point 93 :  -0.4545 0.2727 0.2727  plane waves:    1717
 k-point 94 :  -0.3636 0.2727 0.2727  plane waves:    1706
 k-point 95 :   0.0000 0.0000 0.3636  plane waves:    1743
 k-point 96 :   0.0909 0.0000 0.3636  plane waves:    1747
 k-point 97 :   0.1818 0.0000 0.3636  plane waves:    1758
 k-point 98 :   0.2727 0.0000 0.3636  plane waves:    1752
 k-point 99 :   0.3636 0.0000 0.3636  plane waves:    1732
 k-point ** :   0.4545-0.0000 0.3636  plane waves:    1722
 k-point ** :  -0.4545 0.0000 0.3636  plane waves:    1722
 k-point ** :  -0.3636 0.0000 0.3636  plane waves:    1732
 k-point ** :  -0.2727 0.0000 0.3636  plane waves:    1752
 k-point ** :  -0.1818 0.0000 0.3636  plane waves:    1758
 k-point ** :  -0.0909 0.0000 0.3636  plane waves:    1747
 k-point ** :   0.1818 0.0909 0.3636  plane waves:    1747
 k-point ** :   0.2727 0.0909 0.3636  plane waves:    1754
 k-point ** :   0.3636 0.0909 0.3636  plane waves:    1737
 k-point ** :   0.4545 0.0909 0.3636  plane waves:    1729
 k-point ** :  -0.4545 0.0909 0.3636  plane waves:    1729
 k-point ** :  -0.3636 0.0909 0.3636  plane waves:    1729
 k-point ** :  -0.2727 0.0909 0.3636  plane waves:    1737
 k-point ** :  -0.1818 0.0909 0.3636  plane waves:    1754
 k-point ** :   0.3636 0.1818 0.3636  plane waves:    1733
 k-point ** :   0.4545 0.1818 0.3636  plane waves:    1727
 k-point ** :  -0.4545 0.1818 0.3636  plane waves:    1722
 k-point ** :  -0.3636 0.1818 0.3636  plane waves:    1722
 k-point ** :  -0.2727 0.1818 0.3636  plane waves:    1727
 k-point ** :  -0.4545 0.2727 0.3636  plane waves:    1725
 k-point ** :  -0.3636 0.2727 0.3636  plane waves:    1706
 k-point ** :   0.0000 0.0000 0.4545  plane waves:    1744
 k-point ** :   0.0909 0.0000 0.4545  plane waves:    1749
 k-point ** :   0.1818 0.0000 0.4545  plane waves:    1756
 k-point ** :   0.2727 0.0000 0.4545  plane waves:    1753
 k-point ** :   0.3636 0.0000 0.4545  plane waves:    1731
 k-point ** :   0.4545-0.0000 0.4545  plane waves:    1728
 k-point ** :  -0.4545 0.0000 0.4545  plane waves:    1728
 k-point ** :  -0.3636 0.0000 0.4545  plane waves:    1731
 k-point ** :  -0.2727 0.0000 0.4545  plane waves:    1753
 k-point ** :  -0.1818 0.0000 0.4545  plane waves:    1756
 k-point ** :  -0.0909 0.0000 0.4545  plane waves:    1749
 k-point ** :   0.1818 0.0909 0.4545  plane waves:    1755
 k-point ** :   0.2727 0.0909 0.4545  plane waves:    1753
 k-point ** :   0.3636 0.0909 0.4545  plane waves:    1736
 k-point ** :   0.4545 0.0909 0.4545  plane waves:    1723
 k-point ** :  -0.4545 0.0909 0.4545  plane waves:    1727
 k-point ** :  -0.3636 0.0909 0.4545  plane waves:    1723
 k-point ** :  -0.2727 0.0909 0.4545  plane waves:    1736
 k-point ** :  -0.1818 0.0909 0.4545  plane waves:    1753
 k-point ** :   0.3636 0.1818 0.4545  plane waves:    1731
 k-point ** :   0.4545 0.1818 0.4545  plane waves:    1727
 k-point ** :  -0.4545 0.1818 0.4545  plane waves:    1724
 k-point ** :  -0.3636 0.1818 0.4545  plane waves:    1724
 k-point ** :  -0.2727 0.1818 0.4545  plane waves:    1727
 k-point ** :  -0.4545 0.2727 0.4545  plane waves:    1728
 k-point ** :  -0.3636 0.2727 0.4545  plane waves:    1704

 maximum and minimum number of plane-waves per node :      1759     1702

 maximum number of plane-waves:      1759
 maximum index in each direction: 
   IXMAX=    5   IYMAX=    4   IZMAX=   22
   IXMIN=   -5   IYMIN=   -4   IZMIN=  -23


 serial   3D FFT for wavefunctions
 parallel 3D FFT for charge:
    minimum data exchange during FFTs selected (reduces bandwidth)


 total amount of memory used by VASP MPI-rank0   116979. kBytes
=======================================================================

   base      :      30000. kBytes
   nonl-proj :      37171. kBytes
   fftplans  :       1197. kBytes
   grid      :       4696. kBytes
   one-center:        186. kBytes
   wavefun   :      43729. kBytes
 
     INWAV:  cpu time    0.0000: real time    0.0001
 Broyden mixing: mesh for mixing (old mesh)
   NGX =  9   NGY =  9   NGZ = 45
  (NGX  = 36   NGY  = 36   NGZ  =180)
  gives a total of   3645 points

 initial charge density was supplied:
 charge density of overlapping atoms calculated
 number of electron      60.0000000 magnetization       0.0000000
 keeping initial charge density in first step


--------------------------------------------------------------------------------------------------------


 Maximum index for augmentation-charges         2091 (set IRDMAX)


--------------------------------------------------------------------------------------------------------


 First call to EWALD:  gamma=   0.442
 Maximum number of real-space cells 5x 5x 1
 Maximum number of reciprocal cells 2x 2x 7

    FEWALD:  cpu time    0.0013: real time    0.0013


--------------------------------------- Iteration      1(   1)  ---------------------------------------


    POTLOK:  cpu time    0.0414: real time    0.0447
    SETDIJ:  cpu time    0.5274: real time    0.5287
     EDDAV:  cpu time    7.6555: real time    7.6937
       DOS:  cpu time    0.0056: real time    0.0056
    --------------------------------------------
      LOOP:  cpu time    8.2300: real time    8.2727

 eigenvalue-minimisations  : 23720
 total energy-change (2. order) : 0.4257118E+03  (-0.2640090E+04)
 number of electron      60.0000000 magnetization       0.0000000
 augmentation part       60.0000000 magnetization       0.0000000

 Free energy of the ion-electron system (eV)
  ---------------------------------------------------
  alpha Z        PSCENC =       284.84662160
  Ewald energy   TEWEN  =     -5654.77337669
  -Hartree energ DENC   =     -1458.62963583
  -exchange      EXHF   =         0.00000000
  -V(xc)+E(xc)   XCENC  =       190.89353262
  PAW double counting   =      5776.99904162    -6178.02427365
  entropy T*S    EENTRO =        -0.00087666
  eigenvalues    EBANDS =       998.37527769
  atomic energy  EATOM  =      6466.02551641
  Solvation  Ediel_sol  =         0.00000000
  ---------------------------------------------------
  free energy    TOTEN  =       425.71182711 eV

  energy without entropy =      425.71270377  energy(sigma->0) =      425.71211933


--------------------------------------------------------------------------------------------------------




--------------------------------------- Iteration      1(   2)  ---------------------------------------


     EDDAV:  cpu time    7.6717: real time    7.7235
       DOS:  cpu time    0.0058: real time    0.0058
    --------------------------------------------
      LOOP:  cpu time    7.6775: real time    7.7293

 eigenvalue-minimisations  : 23360
 total energy-change (2. order) :-0.4326505E+03  (-0.4130165E+03)
 number of electron      60.0000000 magnetization       0.0000000
 augmentation part       60.0000000 magnetization       0.0000000

 Free energy of the ion-electron system (eV)
  ---------------------------------------------------
  alpha Z        PSCENC =       284.84662160
  Ewald energy   TEWEN  =     -5654.77337669
  -Hartree energ DENC   =     -1458.62963583
  -exchange      EXHF   =         0.00000000
  -V(xc)+E(xc)   XCENC  =       190.89353262
  PAW double counting   =      5776.99904162    -6178.02427365
  entropy T*S    EENTRO =        -0.00039217
  eigenvalues    EBANDS =       565.72429948
  atomic energy  EATOM  =      6466.02551641
  Solvation  Ediel_sol  =         0.00000000
  ---------------------------------------------------
  free energy    TOTEN  =        -6.93866661 eV

  energy without entropy =       -6.93827444  energy(sigma->0) =       -6.93853588


--------------------------------------------------------------------------------------------------------




--------------------------------------- Iteration      1(   3)  ---------------------------------------


     EDDAV:  cpu time    7.8591: real time    7.8788
       DOS:  cpu time    0.0069: real time    0.0069
    --------------------------------------------
      LOOP:  cpu time    7.8660: real time    7.8857

 eigenvalue-minimisations  : 24904
 total energy-change (2. order) :-0.3135264E+02  (-0.2937105E+02)
 number of electron      60.0000000 magnetization       0.0000000
 augmentation part       60.0000000 magnetization       0.0000000

 Free energy of the ion-electron system (eV)
  ---------------------------------------------------
  alpha Z        PSCENC =       284.84662160
  Ewald energy   TEWEN  =     -5654.77337669
  -Hartree energ DENC   =     -1458.62963583
  -exchange      EXHF   =         0.00000000
  -V(xc)+E(xc)   XCENC  =       190.89353262
  PAW double counting   =      5776.99904162    -6178.02427365
  entropy T*S    EENTRO =        -0.01630801
  eigenvalues    EBANDS =       534.38757887
  atomic energy  EATOM  =      6466.02551641
  Solvation  Ediel_sol  =         0.00000000
  ---------------------------------------------------
  free energy    TOTEN  =       -38.29130305 eV

  energy without entropy =      -38.27499505  energy(sigma->0) =      -38.28586705


--------------------------------------------------------------------------------------------------------




--------------------------------------- Iteration      1(   4)  ---------------------------------------


     EDDAV:  cpu time    8.3946: real time    8.4151
       DOS:  cpu time    0.0068: real time    0.0069
    --------------------------------------------
      LOOP:  cpu time    8.4015: real time    8.4219

 eigenvalue-minimisations  : 26704
 total energy-change (2. order) :-0.4754714E+00  (-0.4747984E+00)
 number of electron      60.0000000 magnetization       0.0000000
 augmentation part       60.0000000 magnetization       0.0000000

 Free energy of the ion-electron system (eV)
  ---------------------------------------------------
  alpha Z        PSCENC =       284.84662160
  Ewald energy   TEWEN  =     -5654.77337669
  -Hartree energ DENC   =     -1458.62963583
  -exchange      EXHF   =         0.00000000
  -V(xc)+E(xc)   XCENC  =       190.89353262
  PAW double counting   =      5776.99904162    -6178.02427365
  entropy T*S    EENTRO =        -0.01648127
  eigenvalues    EBANDS =       533.91228076
  atomic energy  EATOM  =      6466.02551641
  Solvation  Ediel_sol  =         0.00000000
  ---------------------------------------------------
  free energy    TOTEN  =       -38.76677443 eV

  energy without entropy =      -38.75029316  energy(sigma->0) =      -38.76128067


--------------------------------------------------------------------------------------------------------




--------------------------------------- Iteration      1(   5)  ---------------------------------------


     EDDAV:  cpu time    9.9316: real time    9.9615
       DOS:  cpu time    0.0068: real time    0.0068
    CHARGE:  cpu time    0.7852: real time    0.7870
    MIXING:  cpu time    0.0010: real time    0.0010
    --------------------------------------------
      LOOP:  cpu time   10.7245: real time   10.7563

 eigenvalue-minimisations  : 33928
 total energy-change (2. order) :-0.1600434E-01  (-0.1600357E-01)
 number of electron      60.0000007 magnetization       0.0000000
 augmentation part       33.6519317 magnetization       0.0000000

 Broyden mixing:
  rms(total) = 0.24696E+01    rms(broyden)= 0.24695E+01
  rms(prec ) = 0.27723E+01
  weight for this iteration     100.00

 Free energy of the ion-electron system (eV)
  ---------------------------------------------------
  alpha Z        PSCENC =       284.84662160
  Ewald energy   TEWEN  =     -5654.77337669
  -Hartree energ DENC   =     -1458.62963583
  -exchange      EXHF   =         0.00000000
  -V(xc)+E(xc)   XCENC  =       190.89353262
  PAW double counting   =      5776.99904162    -6178.02427365
  entropy T*S    EENTRO =        -0.01646416
  eigenvalues    EBANDS =       533.89625931
  atomic energy  EATOM  =      6466.02551641
  Solvation  Ediel_sol  =         0.00000000
  ---------------------------------------------------
  free energy    TOTEN  =       -38.78277877 eV

  energy without entropy =      -38.76631461  energy(sigma->0) =      -38.77729072


--------------------------------------------------------------------------------------------------------




--------------------------------------- Iteration      1(   6)  ---------------------------------------


    POTLOK:  cpu time    0.0388: real time    0.0390
    SETDIJ:  cpu time    0.5602: real time    0.5616
     EDDAV:  cpu time    8.0593: real time    8.0790
       DOS:  cpu time    0.0064: real time    0.0064
    CHARGE:  cpu time    0.7156: real time    0.7173
    MIXING:  cpu time    0.0011: real time    0.0011
    --------------------------------------------
      LOOP:  cpu time    9.3815: real time    9.4044

 eigenvalue-minimisations  : 25376
 total energy-change (2. order) : 0.4090023E+01  (-0.5427918E+01)
 number of electron      60.0000008 magnetization       0.0000000
 augmentation part       38.7686592 magnetization       0.0000000

 Broyden mixing:
  rms(total) = 0.18726E+01    rms(broyden)= 0.18725E+01
  rms(prec ) = 0.20751E+01
  weight for this iteration     100.00

 eigenvalues of (default mixing * dielectric matrix)
  average eigenvalue GAMMA=   0.5710
  0.5710

 Free energy of the ion-electron system (eV)
  ---------------------------------------------------
  alpha Z        PSCENC =       284.84662160
  Ewald energy   TEWEN  =     -5654.77337669
  -Hartree energ DENC   =     -1314.16942678
  -exchange      EXHF   =         0.00000000
  -V(xc)+E(xc)   XCENC  =       183.38976054
  PAW double counting   =      6190.43167815    -6565.18237302
  entropy T*S    EENTRO =        -0.01518878
  eigenvalues    EBANDS =       374.75403317
  atomic energy  EATOM  =      6466.02551641
  Solvation  Ediel_sol  =         0.00000000
  ---------------------------------------------------
  free energy    TOTEN  =       -34.69275540 eV

  energy without entropy =      -34.67756662  energy(sigma->0) =      -34.68769247


--------------------------------------------------------------------------------------------------------




--------------------------------------- Iteration      1(   7)  ---------------------------------------


    POTLOK:  cpu time    0.0376: real time    0.0380
    SETDIJ:  cpu time    0.5921: real time    0.5942
     EDDAV:  cpu time    8.4892: real time    8.5100
       DOS:  cpu time    0.0069: real time    0.0070
    CHARGE:  cpu time    0.7396: real time    0.7413
    MIXING:  cpu time    0.0009: real time    0.0009
    --------------------------------------------
      LOOP:  cpu time    9.8664: real time    9.8914

 eigenvalue-minimisations  : 27240
 total energy-change (2. order) :-0.4341677E+01  (-0.3227724E+01)
 number of electron      60.0000008 magnetization       0.0000000
 augmentation part       36.9414676 magnetization       0.0000000

 Broyden mixing:
  rms(total) = 0.35474E+01    rms(broyden)= 0.35473E+01
  rms(prec ) = 0.46125E+01
  weight for this iteration     100.00

 eigenvalues of (default mixing * dielectric matrix)
  average eigenvalue GAMMA=   0.4306
  0.6863  0.1750

 Free energy of the ion-electron system (eV)
  ---------------------------------------------------
  alpha Z        PSCENC =       284.84662160
  Ewald energy   TEWEN  =     -5654.77337669
  -Hartree energ DENC   =     -1350.29014005
  -exchange      EXHF   =         0.00000000
  -V(xc)+E(xc)   XCENC  =       185.16017465
  PAW double counting   =      6401.88525115    -6796.99275757
  entropy T*S    EENTRO =        -0.00594173
  eigenvalues    EBANDS =       425.11021934
  atomic energy  EATOM  =      6466.02551641
  Solvation  Ediel_sol  =         0.00000000
  ---------------------------------------------------
  free energy    TOTEN  =       -39.03443288 eV

  energy without entropy =      -39.02849115  energy(sigma->0) =      -39.03245230


--------------------------------------------------------------------------------------------------------




--------------------------------------- Iteration      1(   8)  ---------------------------------------


    POTLOK:  cpu time    0.0370: real time    0.0372
    SETDIJ:  cpu time    0.5826: real time    0.5840
     EDDAV:  cpu time    8.5793: real time    8.5997
       DOS:  cpu time    0.0067: real time    0.0067
    CHARGE:  cpu time    0.6807: real time    0.6824
    MIXING:  cpu time    0.0009: real time    0.0009
    --------------------------------------------
      LOOP:  cpu time    9.8872: real time    9.9108

 eigenvalue-minimisations  : 27504
 total energy-change (2. order) : 0.6316552E+01  (-0.2392977E+01)
 number of electron      60.0000008 magnetization       0.0000000
 augmentation part       36.9083151 magnetization       0.0000000

 Broyden mixing:
  rms(total) = 0.91816E+00    rms(broyden)= 0.91796E+00
  rms(prec ) = 0.11902E+01
  weight for this iteration     100.00

 eigenvalues of (default mixing * dielectric matrix)
  average eigenvalue GAMMA=   0.6634
  1.1806  0.6853  0.1243

 Free energy of the ion-electron system (eV)
  ---------------------------------------------------
  alpha Z        PSCENC =       284.84662160
  Ewald energy   TEWEN  =     -5654.77337669
  -Hartree energ DENC   =     -1353.59087404
  -exchange      EXHF   =         0.00000000
  -V(xc)+E(xc)   XCENC  =       185.27939060
  PAW double counting   =      6466.96980552    -6866.73540465
  entropy T*S    EENTRO =        -0.01615934
  eigenvalues    EBANDS =       439.27659993
  atomic energy  EATOM  =      6466.02551641
  Solvation  Ediel_sol  =         0.00000000
  ---------------------------------------------------
  free energy    TOTEN  =       -32.71788065 eV

  energy without entropy =      -32.70172131  energy(sigma->0) =      -32.71249420


--------------------------------------------------------------------------------------------------------




--------------------------------------- Iteration      1(   9)  ---------------------------------------


    POTLOK:  cpu time    0.0358: real time    0.0360
    SETDIJ:  cpu time    0.5400: real time    0.5416
     EDDAV:  cpu time   10.1444: real time   10.1685
       DOS:  cpu time    0.0066: real time    0.0066
    CHARGE:  cpu time    0.6820: real time    0.6836
    MIXING:  cpu time    0.0009: real time    0.0009
    --------------------------------------------
      LOOP:  cpu time   11.4097: real time   11.4372

 eigenvalue-minimisations  : 33704
 total energy-change (2. order) : 0.1592212E+00  (-0.3412486E+00)
 number of electron      60.0000008 magnetization       0.0000000
 augmentation part       36.8504179 magnetization       0.0000000

 Broyden mixing:
  rms(total) = 0.70012E+00    rms(broyden)= 0.70006E+00
  rms(prec ) = 0.84886E+00
  weight for this iteration     100.00

 eigenvalues of (default mixing * dielectric matrix)
  average eigenvalue GAMMA=   0.6642
  1.4171  0.5597  0.5597  0.1201

 Free energy of the ion-electron system (eV)
  ---------------------------------------------------
  alpha Z        PSCENC =       284.84662160
  Ewald energy   TEWEN  =     -5654.77337669
  -Hartree energ DENC   =     -1344.01059842
  -exchange      EXHF   =         0.00000000
  -V(xc)+E(xc)   XCENC  =       184.73292308
  PAW double counting   =      6710.55707865    -7119.50625385
  entropy T*S    EENTRO =        -0.01885492
  eigenvalues    EBANDS =       439.58828470
  atomic energy  EATOM  =      6466.02551641
  Solvation  Ediel_sol  =         0.00000000
  ---------------------------------------------------
  free energy    TOTEN  =       -32.55865944 eV

  energy without entropy =      -32.53980452  energy(sigma->0) =      -32.55237446


--------------------------------------------------------------------------------------------------------




--------------------------------------- Iteration      1(  10)  ---------------------------------------


    POTLOK:  cpu time    0.0365: real time    0.0367
    SETDIJ:  cpu time    0.5884: real time    0.5898
     EDDAV:  cpu time    8.4472: real time    8.4682
       DOS:  cpu time    0.0068: real time    0.0068
    CHARGE:  cpu time    0.7264: real time    0.7281
    MIXING:  cpu time    0.0011: real time    0.0011
    --------------------------------------------
      LOOP:  cpu time    9.8064: real time    9.8308

 eigenvalue-minimisations  : 27224
 total energy-change (2. order) :-0.5249705E-01  (-0.6891021E-01)
 number of electron      60.0000008 magnetization       0.0000000
 augmentation part       36.8377311 magnetization       0.0000000

 Broyden mixing:
  rms(total) = 0.33062E+00    rms(broyden)= 0.33059E+00
  rms(prec ) = 0.39815E+00
  weight for this iteration     100.00

 eigenvalues of (default mixing * dielectric matrix)
  average eigenvalue GAMMA=   0.7728
  1.5483  0.8122  0.8122  0.5704  0.1209

 Free energy of the ion-electron system (eV)
  ---------------------------------------------------
  alpha Z        PSCENC =       284.84662160
  Ewald energy   TEWEN  =     -5654.77337669
  -Hartree energ DENC   =     -1341.66267745
  -exchange      EXHF   =         0.00000000
  -V(xc)+E(xc)   XCENC  =       184.64266592
  PAW double counting   =      6764.57008749    -7174.51509354
  entropy T*S    EENTRO =        -0.02586948
  eigenvalues    EBANDS =       438.28096926
  atomic energy  EATOM  =      6466.02551641
  Solvation  Ediel_sol  =         0.00000000
  ---------------------------------------------------
  free energy    TOTEN  =       -32.61115648 eV

  energy without entropy =      -32.58528700  energy(sigma->0) =      -32.60253332


--------------------------------------------------------------------------------------------------------




--------------------------------------- Iteration      1(  11)  ---------------------------------------


    POTLOK:  cpu time    0.0548: real time    0.1855
    SETDIJ:  cpu time    0.5844: real time    0.5858
     EDDAV:  cpu time    9.7802: real time    9.8305
       DOS:  cpu time    0.0066: real time    0.0066
    CHARGE:  cpu time    0.6889: real time    0.6946
    MIXING:  cpu time    0.0011: real time    0.0011
    --------------------------------------------
      LOOP:  cpu time   11.1160: real time   11.3042

 eigenvalue-minimisations  : 31368
 total energy-change (2. order) :-0.2031168E-01  (-0.1360626E-01)
 number of electron      60.0000008 magnetization       0.0000000
 augmentation part       36.9337730 magnetization       0.0000000

 Broyden mixing:
  rms(total) = 0.14826E+00    rms(broyden)= 0.14823E+00
  rms(prec ) = 0.18449E+00
  weight for this iteration     100.00

 eigenvalues of (default mixing * dielectric matrix)
  average eigenvalue GAMMA=   0.8841
  2.0051  0.9484  0.9484  0.1209  0.6603  0.6214

 Free energy of the ion-electron system (eV)
  ---------------------------------------------------
  alpha Z        PSCENC =       284.84662160
  Ewald energy   TEWEN  =     -5654.77337669
  -Hartree energ DENC   =     -1336.72132144
  -exchange      EXHF   =         0.00000000
  -V(xc)+E(xc)   XCENC  =       184.45136377
  PAW double counting   =      6839.13020949    -7249.96378161
  entropy T*S    EENTRO =        -0.03178347
  eigenvalues    EBANDS =       434.40508377
  atomic energy  EATOM  =      6466.02551641
  Solvation  Ediel_sol  =         0.00000000
  ---------------------------------------------------
  free energy    TOTEN  =       -32.63146816 eV

  energy without entropy =      -32.59968470  energy(sigma->0) =      -32.62087368


--------------------------------------------------------------------------------------------------------




--------------------------------------- Iteration      1(  12)  ---------------------------------------


    POTLOK:  cpu time    0.0367: real time    0.0373
    SETDIJ:  cpu time    0.5536: real time    0.5594
     EDDAV:  cpu time   11.1096: real time   11.1375
       DOS:  cpu time    0.0066: real time    0.0066
    CHARGE:  cpu time    0.6825: real time    0.6841
    MIXING:  cpu time    0.0013: real time    0.0013
    --------------------------------------------
      LOOP:  cpu time   12.3903: real time   12.4263

 eigenvalue-minimisations  : 39192
 total energy-change (2. order) : 0.4340113E-05  (-0.5351946E-02)
 number of electron      60.0000008 magnetization       0.0000000
 augmentation part       36.9676991 magnetization       0.0000000

 Broyden mixing:
  rms(total) = 0.40215E-01    rms(broyden)= 0.40193E-01
  rms(prec ) = 0.43214E-01
  weight for this iteration     100.00

 eigenvalues of (default mixing * dielectric matrix)
  average eigenvalue GAMMA=   0.9066
  2.2401  0.1209  0.9478  0.9478  0.7503  0.7503  0.5890

 Free energy of the ion-electron system (eV)
  ---------------------------------------------------
  alpha Z        PSCENC =       284.84662160
  Ewald energy   TEWEN  =     -5654.77337669
  -Hartree energ DENC   =     -1334.83672041
  -exchange      EXHF   =         0.00000000
  -V(xc)+E(xc)   XCENC  =       184.37820718
  PAW double counting   =      6877.15982602    -7288.74351302
  entropy T*S    EENTRO =        -0.03521604
  eigenvalues    EBANDS =       433.34719111
  atomic energy  EATOM  =      6466.02551641
  Solvation  Ediel_sol  =         0.00000000
  ---------------------------------------------------
[...]
      2       5.0017      1.00000
      3       5.3564      1.00000
      4       5.3961      1.00000
      5       5.7334      1.00000
      6       5.9362      1.00000
      7       6.1011      1.00000
      8       6.2608      1.00000
      9       6.4163      1.00000
     10       6.5362      1.00000
     11       6.6703      1.00000
     12       6.8191      1.00000
     13       6.9650      1.00000
     14       7.0451      1.00000
     15       7.2526      1.00000
     16       7.3713      1.00000
     17       7.4069      1.00000
     18       7.7314      1.00000
     19       7.8729      1.00000
     20       8.1059      1.00000
     21       8.2796      1.00000
     22       8.4116      1.00000
     23       8.6027      1.00000
     24       8.6454      1.00000
     25       8.7791      1.00001
     26       8.8639      1.00007
     27       9.0840      1.00952
     28       9.3033      1.00128
     29       9.5014      0.38088
     30       9.7079     -0.03505
     31      10.0758     -0.00009
     32      10.4200     -0.00000
     33      11.0979     -0.00000
     34      11.1952     -0.00000
     35      14.6876     -0.00000
     36      14.7131     -0.00000
     37      17.6109      0.00000
     38      18.2168      0.00000
     39      19.7337      0.00000
     40      20.2564      0.00000

 k-point   145 :      -0.4545    0.2727    0.4545
  band No.  band energies     occupation 
      1       5.6325      1.00000
      2       5.6359      1.00000
      3       5.7993      1.00000
      4       5.8219      1.00000
      5       5.8923      1.00000
      6       6.0327      1.00000
      7       6.1836      1.00000
      8       6.1875      1.00000
      9       6.3880      1.00000
     10       6.4153      1.00000
     11       6.6517      1.00000
     12       6.7038      1.00000
     13       6.9325      1.00000
     14       6.9605      1.00000
     15       7.0812      1.00000
     16       7.1657      1.00000
     17       7.4460      1.00000
     18       7.5128      1.00000
     19       8.0630      1.00000
     20       8.1339      1.00000
     21       8.3413      1.00000
     22       8.3877      1.00000
     23       8.5586      1.00000
     24       8.7203      1.00000
     25       8.7555      1.00000
     26       9.0176      1.00296
     27       9.1032      1.01265
     28       9.3510      0.92430
     29       9.5708      0.13574
     30       9.7078     -0.03504
     31      11.5350     -0.00000
     32      11.8077     -0.00000
     33      12.8718     -0.00000
     34      13.0995     -0.00000
     35      16.1020      0.00000
     36      16.4180      0.00000
     37      16.8385      0.00000
     38      16.9214      0.00000
     39      17.2129      0.00000
     40      17.3153      0.00000

 k-point   146 :      -0.3636    0.2727    0.4545
  band No.  band energies     occupation 
      1       5.7675      1.00000
      2       5.7960      1.00000
      3       5.9856      1.00000
      4       5.9883      1.00000
      5       6.0182      1.00000
      6       6.1925      1.00000
      7       6.2352      1.00000
      8       6.2626      1.00000
      9       6.3781      1.00000
     10       6.4040      1.00000
     11       6.4716      1.00000
     12       6.5819      1.00000
     13       6.8304      1.00000
     14       6.9169      1.00000
     15       7.1343      1.00000
     16       7.2798      1.00000
     17       7.3287      1.00000
     18       7.5200      1.00000
     19       8.0263      1.00000
     20       8.2243      1.00000
     21       8.3798      1.00000
     22       8.3996      1.00000
     23       8.6292      1.00000
     24       8.7325      1.00000
     25       8.8694      1.00008
     26       8.9893      1.00166
     27       9.0748      1.00824
     28       9.4409      0.63363
     29       9.4668      0.52556
     30       9.5823      0.10507
     31      13.4577     -0.00000
     32      13.5551     -0.00000
     33      13.8895     -0.00000
     34      13.9556     -0.00000
     35      15.1156      0.00000
     36      15.2794      0.00000
     37      16.3005      0.00000
     38      16.5088      0.00000
     39      16.7198      0.00000
     40      16.8600      0.00000


--------------------------------------------------------------------------------------------------------


 soft charge-density along one line, spin component           1
         0         1         2         3         4         5         6         7         8         9
 total charge-density along one line
 
 soft charge-density along one line, spin component           2
         0         1         2         3         4         5         6         7         8         9
 total charge-density along one line
 
 pseudopotential strength for first ion, spin component:           1
 -0.366  -0.000  -0.000  -0.031  -0.000  -1.053  -0.000  -0.000
 -0.000  -0.270  -0.000   0.000  -0.031  -0.000  -0.961  -0.000
 -0.000  -0.000  -0.370  -0.000  -0.000  -0.000  -0.000  -1.056
 -0.031   0.000  -0.000  -0.270  -0.000  -0.029   0.000  -0.000
 -0.000  -0.031  -0.000  -0.000  -0.366  -0.000  -0.029  -0.000
 -1.053  -0.000  -0.000  -0.029  -0.000  -1.667  -0.000  -0.000
 -0.000  -0.961  -0.000   0.000  -0.029  -0.000  -1.580  -0.000
 -0.000  -0.000  -1.056  -0.000  -0.000  -0.000  -0.000  -1.671
 -0.029   0.000  -0.000  -0.961  -0.000  -0.028   0.000  -0.000
 -0.000  -0.029  -0.000  -0.000  -1.053  -0.000  -0.028  -0.000
 -0.000   0.000  -0.007   0.000  -0.000  -0.000   0.000  -0.007
 -0.000   0.000  -0.013   0.000  -0.000  -0.000   0.000  -0.012
  0.000   0.001  -0.000   0.000   0.000   0.000   0.001  -0.000
  0.000   0.000   0.001   0.000   0.000   0.000   0.000   0.001
  0.000   0.000  -0.000   0.001   0.000   0.000   0.000  -0.000
  0.000   0.001  -0.000   0.000   0.000   0.000   0.001  -0.000
  0.000   0.000   0.002   0.000   0.000   0.000   0.000   0.002
  0.000   0.000  -0.000   0.001   0.000   0.000   0.000  -0.000
 pseudopotential strength for first ion, spin component:           2
  0.107  -0.000  -0.000   0.005  -0.000  -0.602  -0.000  -0.000
 -0.000   0.072  -0.000   0.000   0.005  -0.000  -0.635  -0.000
 -0.000  -0.000   0.150  -0.000  -0.000  -0.000  -0.000  -0.561
  0.005   0.000  -0.000   0.072  -0.000   0.005   0.000  -0.000
 -0.000   0.005  -0.000  -0.000   0.107  -0.000   0.005  -0.000
 -0.602  -0.000  -0.000   0.005  -0.000  -1.238  -0.000  -0.000
 -0.000  -0.635  -0.000   0.000   0.005  -0.000  -1.269  -0.000
 -0.000  -0.000  -0.561  -0.000  -0.000  -0.000  -0.000  -1.199
  0.005   0.000  -0.000  -0.635  -0.000   0.005   0.000  -0.000
 -0.000   0.005  -0.000  -0.000  -0.602  -0.000   0.005  -0.000
 -0.000   0.000   0.001   0.000  -0.000  -0.000   0.000   0.001
 -0.000   0.000   0.002   0.000  -0.000  -0.000   0.000   0.002
  0.000   0.001  -0.000  -0.000  -0.000   0.000   0.001  -0.000
 -0.000   0.000   0.001   0.000  -0.000  -0.000   0.000   0.001
 -0.000  -0.000  -0.000   0.001   0.000  -0.000  -0.000  -0.000
  0.000   0.002  -0.000  -0.000  -0.000   0.000   0.002  -0.000
 -0.000   0.000   0.002   0.000  -0.000  -0.000   0.000   0.002
 -0.000  -0.000  -0.000   0.002   0.000  -0.000  -0.000  -0.000
 total augmentation occupancy for first ion, spin component:           1
  2.962  -0.000   0.000  -0.382   0.000  -1.364   0.000  -0.000   0.174  -0.000  -0.000  -0.000  -0.000   0.000  -0.001  -0.000
 -0.000   3.260  -0.000  -0.000  -0.382   0.000  -1.494   0.000   0.000   0.176   0.000   0.000  -0.002  -0.000   0.000   0.000
  0.000  -0.000   2.781  -0.000  -0.000  -0.000   0.000  -1.307   0.000   0.000  -0.009  -0.000  -0.000   0.013  -0.000   0.000
 -0.382  -0.000  -0.000   3.260  -0.000   0.176   0.000   0.000  -1.494   0.000   0.000   0.000   0.000  -0.000  -0.002  -0.000
  0.000  -0.382  -0.000  -0.000   2.962  -0.000   0.174   0.000   0.000  -1.364   0.000   0.000  -0.001  -0.000   0.000   0.000
 -1.364   0.000  -0.000   0.176  -0.000   1.507  -0.000   0.000  -0.023   0.000   0.000  -0.000   0.000  -0.000   0.001   0.000
  0.000  -1.494   0.000   0.000   0.174  -0.000   1.525  -0.000  -0.000  -0.023  -0.000   0.000   0.001   0.000  -0.000  -0.000
 -0.000   0.000  -1.307   0.000   0.000   0.000  -0.000   1.545  -0.000  -0.000   0.004  -0.000   0.000  -0.006   0.000   0.000
  0.174   0.000   0.000  -1.494   0.000  -0.023  -0.000  -0.000   1.525  -0.000  -0.000   0.000  -0.000   0.000   0.001   0.000
 -0.000   0.176   0.000   0.000  -1.364   0.000  -0.023  -0.000  -0.000   1.507  -0.000   0.000   0.001   0.000  -0.000  -0.000
 -0.000   0.000  -0.009   0.000   0.000   0.000  -0.000   0.004  -0.000  -0.000   2.341  -0.330  -0.000   0.001  -0.000   0.000
 -0.000   0.000  -0.000   0.000   0.000  -0.000   0.000  -0.000   0.000   0.000  -0.330   0.054   0.000  -0.001   0.000  -0.000
 -0.000  -0.002  -0.000   0.000  -0.001   0.000   0.001   0.000  -0.000   0.001  -0.000   0.000   0.311  -0.000  -0.000  -0.034
  0.000  -0.000   0.013  -0.000  -0.000  -0.000   0.000  -0.006   0.000   0.000   0.001  -0.001  -0.000   0.311  -0.000   0.000
 -0.001   0.000  -0.000  -0.002   0.000   0.001  -0.000   0.000   0.001  -0.000  -0.000   0.000  -0.000  -0.000   0.311   0.000
 -0.000   0.000   0.000  -0.000   0.000   0.000  -0.000   0.000   0.000  -0.000   0.000  -0.000  -0.034   0.000   0.000   0.004
  0.000  -0.000   0.000  -0.000  -0.000  -0.000   0.000  -0.000   0.000   0.000  -0.000   0.000   0.000  -0.034   0.000  -0.000
  0.000  -0.000   0.000   0.000  -0.000  -0.000   0.000  -0.000  -0.000   0.000   0.000  -0.000   0.000   0.000  -0.034  -0.000
 total augmentation occupancy for first ion, spin component:           2
  0.820  -0.000   0.000   0.068  -0.000  -0.422   0.000  -0.000  -0.024   0.000  -0.000  -0.000  -0.000   0.000  -0.001  -0.000
 -0.000   0.342  -0.000  -0.000   0.068   0.000  -0.157   0.000   0.000  -0.020   0.000   0.000   0.010  -0.000  -0.000   0.000
  0.000  -0.000   0.881  -0.000  -0.000  -0.000   0.000  -0.449   0.000   0.000  -0.004  -0.002  -0.000   0.010  -0.000  -0.000
  0.068  -0.000  -0.000   0.342  -0.000  -0.020   0.000   0.000  -0.157   0.000   0.000   0.000  -0.000  -0.000   0.010  -0.000
 -0.000   0.068  -0.000  -0.000   0.820   0.000  -0.024   0.000   0.000  -0.422   0.000   0.000  -0.001  -0.000  -0.000   0.000
 -0.422   0.000  -0.000  -0.020   0.000   0.158  -0.000   0.000  -0.004   0.000   0.000   0.000   0.000  -0.000  -0.000  -0.000
  0.000  -0.157   0.000   0.000  -0.024  -0.000   0.028  -0.000  -0.000  -0.004  -0.000  -0.000  -0.010   0.000   0.000  -0.000
 -0.000   0.000  -0.449   0.000   0.000   0.000  -0.000   0.167  -0.000  -0.000   0.005   0.003   0.000  -0.014   0.000   0.000
 -0.024   0.000   0.000  -0.157   0.000  -0.004  -0.000  -0.000   0.028  -0.000  -0.000  -0.000   0.000   0.000  -0.010   0.000
  0.000  -0.020   0.000   0.000  -0.422   0.000  -0.004  -0.000  -0.000   0.158  -0.000  -0.000  -0.000   0.000   0.000  -0.000
 -0.000   0.000  -0.004   0.000   0.000   0.000  -0.000   0.005  -0.000  -0.000  -0.090   0.031   0.000  -0.010   0.000  -0.000
 -0.000   0.000  -0.002   0.000   0.000   0.000  -0.000   0.003  -0.000  -0.000   0.031  -0.007   0.000  -0.001   0.000  -0.000
 -0.000   0.010  -0.000  -0.000  -0.001   0.000  -0.010   0.000   0.000  -0.000   0.000   0.000  -0.009   0.000   0.000   0.002
  0.000  -0.000   0.010  -0.000  -0.000  -0.000   0.000  -0.014   0.000   0.000  -0.010  -0.001   0.000  -0.006   0.000  -0.000
 -0.001  -0.000  -0.000   0.010  -0.000  -0.000   0.000   0.000  -0.010   0.000   0.000   0.000   0.000   0.000  -0.009  -0.000
 -0.000   0.000  -0.000  -0.000   0.000  -0.000  -0.000   0.000   0.000  -0.000  -0.000  -0.000   0.002  -0.000  -0.000  -0.000
  0.000  -0.000   0.001  -0.000  -0.000  -0.000   0.000  -0.001   0.000   0.000   0.000   0.000  -0.000   0.002  -0.000   0.000
  0.000  -0.000  -0.000   0.000  -0.000  -0.000   0.000   0.000  -0.000   0.000  -0.000  -0.000  -0.000  -0.000   0.002   0.000


------------------------ aborting loop because EDIFF is reached ----------------------------------------


 


 total charge     
 
# of ion       s       p       d       tot
------------------------------------------
    1        0.502   0.507   8.327   9.336
    2        0.502   0.510   8.315   9.327
    3        0.502   0.507   8.327   9.336
    4        0.502   0.507   8.327   9.336
    5        0.502   0.510   8.315   9.327
    6        0.502   0.507   8.327   9.336
--------------------------------------------------
tot          3.012   3.050  49.938  55.999
 


 magnetization (x)
 
# of ion       s       p       d       tot
------------------------------------------
    1       -0.003  -0.010   0.501   0.489
    2       -0.004  -0.019   0.653   0.630
    3       -0.003  -0.010   0.501   0.489
    4        0.003   0.010  -0.501  -0.489
    5        0.004   0.019  -0.653  -0.630
    6        0.003   0.010  -0.501  -0.489
--------------------------------------------------
tot          0.000  -0.000  -0.000   0.000
 
    CHARGE:  cpu time    0.6962: real time    0.6978
    FORLOC:  cpu time    0.0013: real time    0.0013
    FORNL :  cpu time    2.0503: real time    2.0552
    STRESS:  cpu time    2.7622: real time    2.7687
    FORCOR:  cpu time    0.0362: real time    0.0362
    FORHAR:  cpu time    0.0041: real time    0.0041
    MIXING:  cpu time    0.0015: real time    0.0015
    OFIELD:  cpu time    0.0000: real time    0.0000

  FORCE on cell =-STRESS in cart. coord.  units (eV):
  Direction    XX          YY          ZZ          XY          YZ          ZX
  --------------------------------------------------------------------------------------
  Alpha Z   284.84662   284.84662   284.84662
  Ewald   -1884.92330 -1884.92330 -1884.92323     0.00003    -0.00000     0.00002
  Hartree   444.55406   444.55406   445.30634     0.00000    -0.00000     0.00000
  E(xc)    -330.38111  -330.38112  -330.41824     0.00001     0.00000     0.00000
  Local       7.93243     7.93211     4.98994     0.00026     0.00000    -0.00001
  n-local   -55.77001   -34.92439   -45.99766    13.00763    -1.44061     1.77651
  augment  1055.41781  1055.41803  1057.57576    -0.00020     0.00000    -0.00001
  Kinetic   475.80495   461.91108   469.90299   -10.07927    -0.83929     1.09644
  Fock        0.00000     0.00000     0.00000     0.00000     0.00000     0.00000
  -------------------------------------------------------------------------------------
  Total       0.95728     0.95728     1.28253    -0.00000    -0.00000    -0.00000
  in kB      23.79545    23.79545    31.88033    -0.00000    -0.00000    -0.00000
  external pressure =       26.49 kB  Pullay stress =        0.00 kB


 VOLUME and BASIS-vectors are now :
 -----------------------------------------------------------------------------
  energy-cutoff  :      520.00
  volume of cell :       64.45
      direct lattice vectors                 reciprocal lattice vectors
     2.476700100  0.000000000  0.000000000     0.403763056 -0.233112700  0.000000006
     1.238350000  2.144885200  0.000000000     0.000000000  0.466225418  0.000000001
    -0.000000200 -0.000000020 12.133302600     0.000000000  0.000000000  0.082417791

  length of vectors
     2.476700100  2.476700071 12.133302600     0.466225413  0.466225418  0.082417791


 FORCES acting on ions
    electron-ion (+dipol)            ewald-force                    non-local-force                 convergence-correction
 -----------------------------------------------------------------------------------------------
   -.288E-07 -.143E-07 0.229E-01   0.374E-13 0.768E-14 -.455E-12   -.238E-08 -.238E-09 0.144E+00   -.376E-08 -.214E-08 -.247E-01
   -.779E-07 -.450E-07 0.397E-05   0.716E-07 0.413E-07 -.634E-05   -.158E-22 0.636E-23 -.662E-23   -.146E-12 -.885E-13 0.536E-07
   0.444E-07 0.233E-07 -.229E-01   -.716E-07 -.413E-07 0.634E-05   0.238E-08 0.238E-09 -.144E+00   0.373E-08 0.213E-08 0.247E-01
   -.288E-07 -.143E-07 0.229E-01   0.374E-13 0.507E-14 0.341E-12   -.238E-08 -.238E-09 0.144E+00   -.376E-08 -.214E-08 -.247E-01
   -.779E-07 -.450E-07 0.397E-05   0.716E-07 0.413E-07 -.634E-05   0.165E-22 -.204E-23 -.662E-23   -.146E-12 -.863E-13 0.536E-07
   0.444E-07 0.233E-07 -.229E-01   -.716E-07 -.413E-07 0.634E-05   0.238E-08 0.238E-09 -.144E+00   0.373E-08 0.213E-08 0.247E-01
 -----------------------------------------------------------------------------------------------
   -.125E-06 -.720E-07 0.132E-06   0.224E-12 0.304E-13 -.181E-12   -.795E-19 -.123E-18 -.278E-16   -.540E-10 -.312E-10 0.482E-09
 
 
 POSITION                                       TOTAL-FORCE (eV/Angst)
 -----------------------------------------------------------------------------------
      0.00000      0.00000      0.00000        -0.000000     -0.000000      0.142437
      1.23835      0.71496      2.02222        -0.000000      0.000000      0.000000
      2.47670      1.42992      4.04443         0.000000      0.000000     -0.142437
     -0.00000     -0.00000      6.06665        -0.000000     -0.000000      0.142437
      1.23835      0.71496      8.08887        -0.000000      0.000000      0.000000
      2.47670      1.42992     10.11109         0.000000      0.000000     -0.142437
 -----------------------------------------------------------------------------------
    total drift:                               -0.000000     -0.000000      0.000000


--------------------------------------------------------------------------------------------------------



  FREE ENERGIE OF THE ION-ELECTRON SYSTEM (eV)
  ---------------------------------------------------
  free  energy   TOTEN  =       -32.63347790 eV

  energy  without entropy=      -32.59896826  energy(sigma->0) =      -32.62197469
 


--------------------------------------------------------------------------------------------------------


    POTLOK:  cpu time    0.5597: real time    0.5611


--------------------------------------------------------------------------------------------------------


     LOOP+:  cpu time  187.8587: real time  188.6650
    4ORBIT:  cpu time    0.0000: real time    0.0000
 


 total charge     
 
# of ion       s       p       d       tot
------------------------------------------
    1        0.502   0.507   8.327   9.336
    2        0.502   0.510   8.315   9.327
    3        0.502   0.507   8.327   9.336
    4        0.502   0.507   8.327   9.336
    5        0.502   0.510   8.315   9.327
    6        0.502   0.507   8.327   9.336
--------------------------------------------------
tot          3.012   3.050  49.938  55.999
 


 magnetization (x)
 
# of ion       s       p       d       tot
------------------------------------------
    1       -0.003  -0.010   0.501   0.489
    2       -0.004  -0.019   0.653   0.630
    3       -0.003  -0.010   0.501   0.489
    4        0.003   0.010  -0.501  -0.489
    5        0.004   0.019  -0.653  -0.630
    6        0.003   0.010  -0.501  -0.489
--------------------------------------------------
tot          0.000  -0.000  -0.000   0.000
 

 total amount of memory used by VASP MPI-rank0   116979. kBytes
=======================================================================

   base      :      30000. kBytes
   nonl-proj :      37171. kBytes
   fftplans  :       1197. kBytes
   grid      :       4696. kBytes
   one-center:        186. kBytes
   wavefun   :      43729. kBytes
 
  
  
 General timing and accounting informations for this job:
 ========================================================
  
                  Total CPU time used (sec):      191.596
                            User time (sec):      190.392
                          System time (sec):        1.204
                         Elapsed time (sec):      193.666
  
                   Maximum memory used (kb):      157724.
                   Average memory used (kb):           0.
  
                          Minor page faults:        51659
                          Major page faults:            0
                 Voluntary context switches:         1400
