       N       E                     dE             d eps       ncg     rms          rms(c)
DAV:   1     0.527598077591E+04    0.52760E+04   -0.18109E+05 10080   0.187E+03
DAV:   2     0.391668831423E+03   -0.48843E+04   -0.46181E+04  8816   0.639E+02
DAV:   3    -0.193890848230E+03   -0.58556E+03   -0.54255E+03  9448   0.235E+02
DAV:   4    -0.226157650015E+03   -0.32267E+02   -0.31349E+02  9848   0.509E+01
DAV:   5    -0.226867361078E+03   -0.70971E+00   -0.70460E+00  9616   0.842E+00    0.605E+01
DAV:   6    -0.208213583951E+03    0.18654E+02   -0.25078E+02 11348   0.771E+01    0.686E+01
DAV:   7    -0.193002164899E+03    0.15211E+02   -0.57411E+01 10632   0.509E+01    0.286E+01
DAV:   8    -0.193350193394E+03   -0.34803E+00   -0.98527E+00  9552   0.702E+00    0.140E+01
DAV:   9    -0.193298359418E+03    0.51834E-01   -0.19980E-01 10408   0.205E+00    0.249E+00
DAV:  10    -0.193294857517E+03    0.35019E-02   -0.10535E-01  9696   0.142E+00    0.116E+00
DAV:  11    -0.193295910391E+03   -0.10529E-02   -0.67696E-03 11336   0.354E-01    0.837E-01
DAV:  12    -0.193299031569E+03   -0.31212E-02   -0.81521E-03 11432   0.435E-01    0.373E-01
DAV:  13    -0.193302145295E+03   -0.31137E-02   -0.15224E-03 10760   0.127E-01    0.227E-01
DAV:  14    -0.193303342265E+03   -0.11970E-02   -0.74899E-04 10528   0.118E-01    0.873E-02
DAV:  15    -0.193303513116E+03   -0.17085E-03   -0.19846E-04 10848   0.492E-02    0.511E-02
DAV:  16    -0.193303553191E+03   -0.40075E-04   -0.59011E-05 11240   0.378E-02    0.147E-02
DAV:  17    -0.193303570497E+03   -0.17306E-04   -0.12872E-05  8192   0.127E-02    0.452E-03
DAV:  18    -0.193303571098E+03   -0.60145E-06   -0.38290E-07  5120   0.261E-03
   1 F= -.19330357E+03 E0= -.19306150E+03  d E =-.484149E+00  mag=    11.2769
