=========================================
SLURM_JOB_ID = 30234761
SLURM_JOB_NODELIST = lnode49
SLURM_GPUS = 
SLURM_CPUS_ON_NODE = 8
SLURM_JOB_PARTITION = lenovo
SLURM_TASK_PID = 966376
CUDA_VISIBLE_DEVICES = 
==========================================
 running on    8 total cores
 distrk:  each k-point on    8 cores,    1 groups
 distr:  one band on    4 cores,    2 groups
 using from now: INCAR     
 vasp.5.4.4.18Apr17-6-g9f103f2a35 (build Apr 28 2018 00:24:27) complex          
  
 POSCAR found type information on POSCAR  Eu O 
 POSCAR found :  2 types and       8 ions
 scaLAPACK will be used
 LDA part: xc-table for Pade appr. of Perdew
 POSCAR, INCAR and KPOINTS ok, starting setup
 FFT: planning ...
 WAVECAR not read
 entering main loop
       N       E                     dE             d eps       ncg     rms          rms(c)
DAV:   1     0.123820660101E+04    0.12382E+04   -0.30595E+04  8400   0.346E+03
DAV:   2     0.322216193400E+03   -0.91599E+03   -0.83114E+03  9752   0.679E+02
DAV:   3    -0.105959598072E+02   -0.33281E+03   -0.32205E+03 10568   0.348E+02
DAV:   4    -0.805563536278E+02   -0.69960E+02   -0.67879E+02 13656   0.143E+02
DAV:   5    -0.888694093046E+02   -0.83131E+01   -0.76072E+01 13752   0.536E+01    0.376E+01
DAV:   6    -0.144711446914E+03   -0.55842E+02   -0.76522E+02 12144   0.217E+02    0.154E+02
DAV:   7    -0.511957769252E+02    0.93516E+02   -0.88280E+02 11216   0.125E+02    0.550E+01
DAV:   8    -0.808044556796E+02   -0.29609E+02   -0.27241E+02 12776   0.727E+01    0.314E+01
DAV:   9    -0.826606917954E+02   -0.18562E+01   -0.27465E+01 11200   0.314E+01    0.162E+01
DAV:  10    -0.832265382126E+02   -0.56585E+00   -0.29632E+00 14144   0.112E+01    0.131E+01
DAV:  11    -0.832236249316E+02    0.29133E-02   -0.37685E-01 13352   0.468E+00    0.114E+01
DAV:  12    -0.833100577003E+02   -0.86433E-01   -0.66140E-01 12688   0.694E+00    0.761E+00
DAV:  13    -0.833621738051E+02   -0.52116E-01   -0.19555E-01 14120   0.281E+00    0.678E+00
DAV:  14    -0.833776845283E+02   -0.15511E-01   -0.26140E-02 12520   0.140E+00    0.629E+00
DAV:  15    -0.834040104792E+02   -0.26326E-01   -0.13089E-01 11816   0.354E+00    0.448E+00
DAV:  16    -0.833526119001E+02    0.51399E-01   -0.56546E-02 13704   0.157E+00    0.489E+00
DAV:  17    -0.833169776541E+02    0.35634E-01   -0.88054E-02 12648   0.204E+00    0.388E+00
DAV:  18    -0.833387770696E+02   -0.21799E-01   -0.13823E-01 12672   0.261E+00    0.129E+00
DAV:  19    -0.833446923586E+02   -0.59153E-02   -0.24452E-02 13704   0.931E-01    0.784E-01
DAV:  20    -0.833459457879E+02   -0.12534E-02   -0.30337E-03 12904   0.456E-01    0.310E-01
DAV:  21    -0.833462541176E+02   -0.30833E-03   -0.10917E-03 13704   0.216E-01    0.165E-01
DAV:  22    -0.833462859049E+02   -0.31787E-04   -0.15939E-04 12472   0.875E-02    0.568E-02
DAV:  23    -0.833462868454E+02   -0.94050E-06   -0.44318E-05 13056   0.428E-02    0.405E-02
DAV:  24    -0.833462873475E+02   -0.50211E-06   -0.17896E-05 12032   0.360E-02    0.799E-03
DAV:  25    -0.833462873695E+02   -0.21921E-07   -0.30646E-06  7872   0.135E-02
   1 F= -.83346287E+02 E0= -.83352414E+02  d E =0.183790E-01  mag=     0.0000
