 vasp.5.4.4.18Apr17-6-g9f103f2a35 (build Apr 28 2018 00:24:27) complex          
  
 executed on             LinuxIFC date 2021.03.25  01:51:13
 running on    8 total cores
 distrk:  each k-point on    8 cores,    1 groups
 distr:  one band on NCORES_PER_BAND=   4 cores,    2 groups


--------------------------------------------------------------------------------------------------------


 INCAR:
 POTCAR:    PAW_PBE Eu 23Dec2003                  
 POTCAR:    PAW_PBE O 08Apr2002                   
 POTCAR:    PAW_PBE Eu 23Dec2003                  
   SHA256 =  ed303d27e7c5191953f9b15539336e6f36d9037c1d2e92e80c13d733697cb93d Eu
   COPYR  = (c) Copyright 23Dec2003 Georg Kresse                                
   COPYR  = This file is part of the software VASP. Any use, copying, and all ot
   COPYR  = If you do not have a valid VASP license, you may not use, copy or di
   VRHFIN =Eu : [core=Kr4d]                                                     
   LEXCH  = PE                                                                  
   EATOM  =  2619.8085 eV,  192.5505 Ry                                         
                                                                                
   TITEL  = PAW_PBE Eu 23Dec2003                                                
   LULTRA =        F    use ultrasoft PP ?                                      
   IUNSCR =        1    unscreen: 0-lin 1-nonlin 2-no                           
   RPACOR =    2.300    partial core radius                                     
   POMASS =  151.965; ZVAL   =   17.000    mass and valenz                      
   RCORE  =    2.800    outmost cutoff radius                                   
   RWIGS  =    2.800; RWIGS  =    1.482    wigner-seitz radius (au A)           
   ENMAX  =  249.668; ENMIN  =  187.251 eV                                      
   RCLOC  =    2.308    cutoff for local pot                                    
   LCOR   =        T    correct aug charges                                     
   LPAW   =        T    paw PP                                                  
   EAUG   =  549.628                                                            
   DEXC   =    0.000                                                            
   RMAX   =    2.870    core radius for proj-oper                               
   RAUG   =    1.300    factor for augmentation sphere                          
   RDEP   =    2.887    radius for radial grids                                 
   RDEPT  =    2.221    core radius for aug-charge                              
                                                                                
   Atomic configuration                                                         
   14 entries                                                                   
     n  l   j            E        occ.                                          
     1  0  0.50    -48354.7667   2.0000                                         
     2  0  0.50     -7939.6472   2.0000                                         
     2  1  1.50     -7072.6637   6.0000                                         
     3  0  0.50     -1747.1875   2.0000                                         
     3  1  1.50     -1477.5221   6.0000                                         
     3  2  2.50     -1117.4686  10.0000                                         
     4  0  0.50      -346.8682   2.0000                                         
     4  1  1.50      -258.1962   6.0000                                         
     4  2  2.50      -134.7724  10.0000                                         
     5  0  0.50       -44.6510   2.0000                                         
     6  0  0.50        -3.6227   2.0000                                         
     5  1  1.50       -23.7639   6.0000                                         
     5  2  2.50        -1.3130   0.0000                                         
     4  3  2.50        -2.7310   7.0000                                         
   Description                                                                  
     l       E           TYP  RCUT    TYP  RCUT                                 
     0    -44.6510453     23  2.400                                             
     0     -3.6226685     23  2.400                                             
     1    -23.7638687     23  2.400                                             
     1     27.2116520     23  2.400                                             
     2     -1.3129622     23  2.500                                             
     2     13.6058260     23  2.500                                             
     3     -2.7309948     23  2.800                                             
     3     -3.4014565     23  2.800                                             
  local pseudopotential read in
  partial core-charges read in
  partial kinetic energy density read in
  atomic valenz-charges read in
  non local Contribution for L=           0  read in
    real space projection operators read in
  non local Contribution for L=           0  read in
    real space projection operators read in
  non local Contribution for L=           1  read in
    real space projection operators read in
  non local Contribution for L=           1  read in
    real space projection operators read in
  non local Contribution for L=           2  read in
    real space projection operators read in
  non local Contribution for L=           2  read in
    real space projection operators read in
  non local Contribution for L=           3  read in
    real space projection operators read in
  non local Contribution for L=           3  read in
    real space projection operators read in
    PAW grid and wavefunctions read in
 
   number of l-projection  operators is LMAX  =           8
   number of lm-projection operators is LMMAX =          32
 
 POTCAR:    PAW_PBE O 08Apr2002                   
   SHA256 =  818f92134a0a090dccd8ba1447fa70422a3b330e708bb4f08108d8ae51209ddf O/
   COPYR  = (c) Copyright 08Apr2002 Georg Kresse                                
   COPYR  = This file is part of the software VASP. Any use, copying, and all ot
   COPYR  = If you do not have a valid VASP license, you may not use, copy or di
   VRHFIN =O: s2p4                                                              
   LEXCH  = PE                                                                  
   EATOM  =   432.3788 eV,   31.7789 Ry                                         
                                                                                
   TITEL  = PAW_PBE O 08Apr2002                                                 
   LULTRA =        F    use ultrasoft PP ?                                      
   IUNSCR =        1    unscreen: 0-lin 1-nonlin 2-no                           
   RPACOR =    1.200    partial core radius                                     
   POMASS =   16.000; ZVAL   =    6.000    mass and valenz                      
   RCORE  =    1.520    outmost cutoff radius                                   
   RWIGS  =    1.550; RWIGS  =    0.820    wigner-seitz radius (au A)           
   ENMAX  =  400.000; ENMIN  =  300.000 eV                                      
   ICORE  =        2    local potential                                         
   LCOR   =        T    correct aug charges                                     
   LPAW   =        T    paw PP                                                  
   EAUG   =  605.392                                                            
   DEXC   =    0.000                                                            
   RMAX   =    1.553    core radius for proj-oper                               
   RAUG   =    1.300    factor for augmentation sphere                          
   RDEP   =    1.550    radius for radial grids                                 
   RDEPT  =    1.329    core radius for aug-charge                              
                                                                                
   Atomic configuration                                                         
    4 entries                                                                   
     n  l   j            E        occ.                                          
     1  0  0.50      -514.6923   2.0000                                         
     2  0  0.50       -23.9615   2.0000                                         
     2  1  0.50        -9.0305   4.0000                                         
     3  2  1.50        -9.5241   0.0000                                         
   Description                                                                  
     l       E           TYP  RCUT    TYP  RCUT                                 
     0    -23.9615318     23  1.200                                             
     0     -9.5240782     23  1.200                                             
     1     -9.0304911     23  1.520                                             
     1      8.1634956     23  1.520                                             
     2     -9.5240782      7  1.500                                             
  local pseudopotential read in
  partial core-charges read in
  partial kinetic energy density read in
  kinetic energy density of atom read in
  atomic valenz-charges read in
  non local Contribution for L=           0  read in
    real space projection operators read in
  non local Contribution for L=           0  read in
    real space projection operators read in
  non local Contribution for L=           1  read in
    real space projection operators read in
  non local Contribution for L=           1  read in
    real space projection operators read in
    PAW grid and wavefunctions read in
 
   number of l-projection  operators is LMAX  =           4
   number of lm-projection operators is LMMAX =           8
 
  PAW_PBE Eu 23Dec2003                  :
 energy of atom  1       EATOM=-2619.8085
 kinetic energy error for atom=    0.0019 (will be added to EATOM!!)
  PAW_PBE O 08Apr2002                   :
 energy of atom  2       EATOM= -432.3788
 kinetic energy error for atom=    0.0224 (will be added to EATOM!!)
 
 
 POSCAR: Eu1 O1 str #: 8                         
  positions in direct lattice
  No initial velocities read in
 exchange correlation table for  LEXCH =        8
   RHO(1)=    0.500       N(1)  =     2000
   RHO(2)=  100.500       N(2)  =     4000
 


--------------------------------------------------------------------------------------------------------


 ion  position               nearest neighbor table
   1  0.000  0.000  0.000-   5 2.54   8 2.54   5 2.54   8 2.54   8 2.54   5 2.54
   2  0.500  0.750  0.250-   6 2.54   5 2.54   6 2.54   5 2.54   5 2.54   6 2.54
   3  0.000  0.500  0.500-   7 2.54   6 2.54   7 2.54   6 2.54   6 2.54   7 2.54
   4  0.500  0.250  0.750-   8 2.54   7 2.54   8 2.54   7 2.54   7 2.54   8 2.54
   5  0.750  0.375  0.125-   1 2.54   2 2.54   1 2.54   2 2.54   2 2.54   1 2.54
   6  0.250  0.125  0.375-   2 2.54   3 2.54   2 2.54   3 2.54   3 2.54   2 2.54
   7  0.750  0.875  0.625-   3 2.54   4 2.54   3 2.54   4 2.54   4 2.54   3 2.54
   8  0.250  0.625  0.875-   4 2.54   1 2.54   4 2.54   1 2.54   1 2.54   4 2.54
 
  LATTYP: Found a base centered monoclinic cell.
 ALAT       =     6.2226765187
 B/A-ratio  =     0.5773363404
 C/A-ratio  =     1.9148199380
 COS(beta)  =    -0.1507759885
  
  Lattice vectors:
  
 A1 = (   1.7963845000,   3.1112791000,   0.0000000000)
 A2 = (   3.5926456000,   0.0000000000,   0.0000000000)
 A3 = (  -1.7965419000,  -1.0371877000, -11.7333360000)


Analysis of symmetry for initial positions (statically):
=====================================================================
 Subroutine PRICEL returns following result:
 
  LATTYP: Found a trigonal (rhomboedric) cell.
 ALAT       =     3.5926456000
 COS(alpha) =     0.5000198342
  
  Lattice vectors:
  
 A1 = (  -3.5926456000,   0.0000000000,  -0.0000000000)
 A2 = (  -1.7963930000,  -1.0371167000,  -2.9333340000)
 A3 = (  -1.7963845000,  -3.1112791000,  -0.0000000000)
 
   4 primitive cells build up your supercell.
 

 Routine SETGRP: Setting up the symmetry group for a 
 base centered monoclinic supercell.


 Subroutine GETGRP returns: Found  4 space group operations
 (whereof  4 operations were pure point group operations)
 out of a pool of  4 trial point group operations.


The static configuration has the point symmetry C_2h.


Analysis of symmetry for dynamics (positions and initial velocities):
=====================================================================
 Subroutine PRICEL returns following result:
 
  LATTYP: Found a trigonal (rhomboedric) cell.
 ALAT       =     3.5926456000
 COS(alpha) =     0.5000198342
  
  Lattice vectors:
  
 A1 = (  -3.5926456000,   0.0000000000,  -0.0000000000)
 A2 = (  -1.7963930000,  -1.0371167000,  -2.9333340000)
 A3 = (  -1.7963845000,  -3.1112791000,  -0.0000000000)
 
   4 primitive cells build up your supercell.
 

 Routine SETGRP: Setting up the symmetry group for a 
 base centered monoclinic supercell.


 Subroutine GETGRP returns: Found  4 space group operations
 (whereof  4 operations were pure point group operations)
 out of a pool of  4 trial point group operations.


The dynamic configuration has the point symmetry C_2h.


Analysis of structural, dynamic, and magnetic symmetry:
=====================================================================
 Subroutine PRICEL returns following result:
 
  LATTYP: Found a base centered monoclinic cell.
 ALAT       =    11.9153050659
 B/A-ratio  =     0.3015094678
 C/A-ratio  =     0.5222291463
 COS(beta)  =    -0.8333278478
  
  Lattice vectors:
  
 A1 = (   0.0001404000,   2.0742334000,   5.8666680000)
 A2 = (   1.7964015000,  -1.0370457000,   5.8666680000)
 A3 = (   1.7962441000,   1.0370457000,  -5.8666680000)
 
   2 primitive cells build up your supercell.
 

 Routine SETGRP: Setting up the symmetry group for a 
 base centered monoclinic supercell.


 Subroutine GETGRP returns: Found  4 space group operations
 (whereof  2 operations were pure point group operations)
 out of a pool of  4 trial point group operations.


The magnetic configuration has the point symmetry C_1h.
 The point group associated with its full space group is C_2h.


 Subroutine INISYM returns: Found  4 space group operations
 (whereof  2 operations are pure point group operations),
 and found     2 'primitive' translations

 
 

Automatic generation of k-mesh.
 generate k-points for:    5    5    2
Space group operators:
 irot       det(A)        alpha          n_x          n_y          n_z        tau_x        tau_y        tau_z
    1     1.000000     0.000000     1.000000     0.000000     0.000000     0.000000     0.000000     0.000000
    2    -1.000000   179.999999    -0.499990     0.866031     0.000001     0.000000     0.000000     0.000000
    3    -1.000000     0.000000     1.000000     0.000000     0.000000     0.500000     0.750000     0.250000
    4     1.000000   179.999999    -0.499990     0.866031     0.000001     0.500000     0.750000     0.250000
 
 Subroutine IBZKPT returns following result:
 ===========================================
 
 Found     26 irreducible k-points:
 
 Following reciprocal coordinates:
            Coordinates               Weight
  0.000000  0.000000  0.000000      1.000000
  0.200000 -0.000000  0.000000      2.000000
  0.400000 -0.000000  0.000000      2.000000
  0.000000  0.200000 -0.000000      2.000000
  0.200000  0.200000 -0.000000      2.000000
  0.400000  0.200000 -0.000000      2.000000
 -0.400000  0.200000  0.000000      2.000000
 -0.200000  0.200000 -0.000000      2.000000
  0.000000  0.400000 -0.000000      2.000000
  0.200000  0.400000 -0.000000      2.000000
  0.400000  0.400000 -0.000000      2.000000
 -0.400000  0.400000 -0.000000      2.000000
 -0.200000  0.400000 -0.000000      2.000000
  0.000000  0.000000  0.500000      1.000000
  0.200000 -0.000000  0.500000      2.000000
  0.400000 -0.000000  0.500000      2.000000
  0.000000  0.200000  0.500000      2.000000
  0.200000  0.200000  0.500000      2.000000
  0.400000  0.200000  0.500000      2.000000
 -0.400000  0.200000  0.500000      2.000000
 -0.200000  0.200000  0.500000      2.000000
  0.000000  0.400000  0.500000      2.000000
  0.200000  0.400000  0.500000      2.000000
  0.400000  0.400000  0.500000      2.000000
 -0.400000  0.400000  0.500000      2.000000
 -0.200000  0.400000  0.500000      2.000000
 
 Following cartesian coordinates:
            Coordinates               Weight
  0.000000  0.000000  0.000000      1.000000
  0.055669 -0.032142  0.011363      2.000000
  0.111339 -0.064284  0.022726      2.000000
  0.055669  0.032140  0.005681      2.000000
  0.111339 -0.000002  0.017044      2.000000
  0.167008 -0.032144  0.028407      2.000000
 -0.055669  0.096424 -0.017045      2.000000
  0.000000  0.064282 -0.005682      2.000000
  0.111339  0.064280  0.011361      2.000000
  0.167008  0.032138  0.022724      2.000000
  0.222677 -0.000004  0.034087      2.000000
  0.000000  0.128564 -0.011365      2.000000
  0.055669  0.096422 -0.000002      2.000000
  0.000000  0.000000  0.042614      1.000000
  0.055669 -0.032142  0.053977      2.000000
  0.111339 -0.064284  0.065340      2.000000
  0.055669  0.032140  0.048294      2.000000
  0.111339 -0.000002  0.059657      2.000000
  0.167008 -0.032144  0.071020      2.000000
 -0.055669  0.096424  0.025568      2.000000
  0.000000  0.064282  0.036931      2.000000
  0.111339  0.064280  0.053975      2.000000
  0.167008  0.032138  0.065338      2.000000
  0.222677 -0.000004  0.076701      2.000000
  0.000000  0.128564  0.031249      2.000000
  0.055669  0.096422  0.042612      2.000000
 


--------------------------------------------------------------------------------------------------------




 Dimension of arrays:
   k-points           NKPTS =     26   k-points in BZ     NKDIM =     26   number of bands    NBANDS=     56
   number of dos      NEDOS =    301   number of ions     NIONS =      8
   non local maximal  LDIM  =      8   non local SUM 2l+1 LMDIM =     32
   total plane-waves  NPLWV =  28000
   max r-space proj   IRMAX =      1   max aug-charges    IRDMAX=  12403
   dimension x,y,z NGX =    20 NGY =   20 NGZ =   70
   dimension x,y,z NGXF=    40 NGYF=   40 NGZF=  140
   support grid    NGXF=    40 NGYF=   40 NGZF=  140
   ions per type =               4   4
   NGX,Y,Z   is equivalent  to a cutoff of   9.25,  9.25,  9.77 a.u.
   NGXF,Y,Z  is equivalent  to a cutoff of  18.51, 18.51, 19.53 a.u.

 SYSTEM =  "EuO"                                   
 POSCAR =  Eu1 O1 str #: 8                         

 Startparameter for this run:
   NWRITE =      2    write-flag & timer
   PREC   = normal    normal or accurate (medium, high low for compatibility)
   ISTART =      0    job   : 0-new  1-cont  2-samecut
   ICHARG =      2    charge: 1-file 2-atom 10-const
   ISPIN  =      2    spin polarized calculation?
   LNONCOLLINEAR =      F non collinear calculations
   LSORBIT =      F    spin-orbit coupling
   INIWAV =      1    electr: 0-lowe 1-rand  2-diag
   LASPH  =      F    aspherical Exc in radial PAW
   METAGGA=      F    non-selfconsistent MetaGGA calc.

 Electronic Relaxation 1
   ENCUT  =  500.0 eV  36.75 Ry    6.06 a.u.   6.55  6.55 21.72*2*pi/ulx,y,z
   ENINI  =  500.0     initial cutoff
   ENAUG  =  605.4 eV  augmentation charge cutoff
   NELM   =     60;   NELMIN=  2; NELMDL= -5     # of ELM steps 
   EDIFF  = 0.1E-05   stopping-criterion for ELM
   LREAL  =      F    real-space projection
   NLSPLINE    = F    spline interpolate recip. space projectors
   LCOMPAT=      F    compatible to vasp.4.4
   GGA_COMPAT  = T    GGA compatible to vasp.4.4-vasp.4.6
   LMAXPAW     = -100 max onsite density
   LMAXMIX     =    2 max onsite mixed and CHGCAR
   VOSKOWN=      0    Vosko Wilk Nusair interpolation
   ROPT   =    0.00000   0.00000
 Ionic relaxation
   EDIFFG = 0.1E-04   stopping-criterion for IOM
   NSW    =      0    number of steps for IOM
   NBLOCK =      1;   KBLOCK =      1    inner block; outer block 
   IBRION =     -1    ionic relax: 0-MD 1-quasi-New 2-CG
   NFREE  =      1    steps in history (QN), initial steepest desc. (CG)
   ISIF   =      2    stress and relaxation
   IWAVPR =     10    prediction:  0-non 1-charg 2-wave 3-comb
   ISYM   =      2    0-nonsym 1-usesym 2-fastsym
   LCORR  =      T    Harris-Foulkes like correction to forces

   POTIM  = 0.5000    time-step for ionic-motion
   TEIN   =    0.0    initial temperature
   TEBEG  =    0.0;   TEEND  =   0.0 temperature during run
   SMASS  =  -3.00    Nose mass-parameter (am)
   estimated Nose-frequenzy (Omega)   =  0.10E-29 period in steps =****** mass=  -0.295E-27a.u.
   SCALEE = 1.0000    scale energy and forces
   NPACO  =    256;   APACO  = 16.0  distance and # of slots for P.C.
   PSTRESS=    0.0 pullay stress

  Mass of Ions in am
   POMASS = 151.97 16.00
  Ionic Valenz
   ZVAL   =  17.00  6.00
  Atomic Wigner-Seitz radii
   RWIGS  =  -1.00 -1.00
  virtual crystal weights 
   VCA    =   1.00  1.00
   NELECT =      92.0000    total number of electrons
   NUPDOWN=      -1.0000    fix difference up-down

 DOS related values:
   EMIN   =  10.00;   EMAX   =-10.00  energy-range for DOS
   EFERMI =   0.00
   ISMEAR =     1;   SIGMA  =   0.10  broadening in eV -4-tet -1-fermi 0-gaus

 Electronic relaxation 2 (details)
   IALGO  =     38    algorithm
   LDIAG  =      T    sub-space diagonalisation (order eigenvalues)
   LSUBROT=      F    optimize rotation matrix (better conditioning)
   TURBO    =      0    0=normal 1=particle mesh
   IRESTART =      0    0=no restart 2=restart with 2 vectors
   NREBOOT  =      0    no. of reboots
   NMIN     =      0    reboot dimension
   EREF     =   0.00    reference energy to select bands
   IMIX   =      4    mixing-type and parameters
     AMIX     =   0.40;   BMIX     =  1.00
     AMIX_MAG =   1.60;   BMIX_MAG =  1.00
     AMIN     =   0.10
     WC   =   100.;   INIMIX=   1;  MIXPRE=   1;  MAXMIX= -45

 Intra band minimization:
   WEIMIN = 0.0000     energy-eigenvalue tresh-hold
   EBREAK =  0.45E-08  absolut break condition
   DEPER  =   0.30     relativ break condition  

   TIME   =   0.40     timestep for ELM

  volume/ion in A,a.u.               =      16.39       110.63
  Fermi-wavevector in a.u.,A,eV,Ry     =   1.454607  2.748810 28.788335  2.115883
  Thomas-Fermi vector in A             =   2.571738
 
 Write flags
   LWAVE        =      F    write WAVECAR
   LDOWNSAMPLE  =      F    k-point downsampling of WAVECAR
   LCHARG       =      F    write CHGCAR
   LVTOT        =      F    write LOCPOT, total local potential
   LVHAR        =      F    write LOCPOT, Hartree potential only
   LELF         =      F    write electronic localiz. function (ELF)
   LORBIT       =     11    0 simple, 1 ext, 2 COOP (PROOUT), +10 PAW based schemes


 Dipole corrections
   LMONO  =      F    monopole corrections only (constant potential shift)
   LDIPOL =      F    correct potential (dipole corrections)
   IDIPOL =      0    1-x, 2-y, 3-z, 4-all directions 
   EPSILON=  1.0000000 bulk dielectric constant

 Exchange correlation treatment:
   GGA     =    --    GGA type
   LEXCH   =     8    internal setting for exchange type
   VOSKOWN=      0    Vosko Wilk Nusair interpolation
   LHFCALC =     F    Hartree Fock is set to
   LHFONE  =     F    Hartree Fock one center treatment
   AEXX    =    0.0000 exact exchange contribution

 Linear response parameters
   LEPSILON=     F    determine dielectric tensor
   LRPA    =     F    only Hartree local field effects (RPA)
   LNABLA  =     F    use nabla operator in PAW spheres
   LVEL    =     F    velocity operator in full k-point grid
   LINTERFAST=   F  fast interpolation
   KINTER  =     0    interpolate to denser k-point grid
   CSHIFT  =0.1000    complex shift for real part using Kramers Kronig
   OMEGAMAX=  -1.0    maximum frequency
   DEG_THRESHOLD= 0.2000000E-02 threshold for treating states as degnerate
   RTIME   =   -0.100 relaxation time in fs
  (WPLASMAI=    0.000 imaginary part of plasma frequency in eV, 0.658/RTIME)
   DFIELD  = 0.0000000 0.0000000 0.0000000 field for delta impulse in time
 
 Orbital magnetization related:
   ORBITALMAG=     F  switch on orbital magnetization
   LCHIMAG   =     F  perturbation theory with respect to B field
   DQ        =  0.001000  dq finite difference perturbation B field
   LLRAUG    =     F  two centre corrections for induced B field



--------------------------------------------------------------------------------------------------------


 Static calculation
 charge density and potential will be updated during run
 spin polarized calculation
 Variant of blocked Davidson
 Davidson routine will perform the subspace rotation
 perform sub-space diagonalisation
    after iterative eigenvector-optimisation
 modified Broyden-mixing scheme, WC =      100.0
 initial mixing is a Kerker type mixing with AMIX =  0.4000 and BMIX =      1.0000
 Hartree-type preconditioning will be used
 using additional bands           10
 reciprocal scheme for non local part
 use partial core corrections
 calculate Harris-corrections to forces 
   (improved forces if not selfconsistent)
 use gradient corrections 
 use of overlap-Matrix (Vanderbilt PP)
 Methfessel and Paxton  Order N= 1 SIGMA  =   0.10


--------------------------------------------------------------------------------------------------------


  energy-cutoff  :      500.00
  volume of cell :      131.15
      direct lattice vectors                 reciprocal lattice vectors
     1.796261100 -3.111279100  0.000000000     0.278346409 -0.160711128  0.056814756
     1.796384500  3.111279100  0.000000000     0.278346409  0.160700088  0.028403078
    -1.796103700  1.037187700 11.733336000     0.000000000  0.000000000  0.085227253

  length of vectors
     3.592577289  3.592638990 11.915239004     0.326393484  0.322657677  0.085227253


 
 k-points in units of 2pi/SCALE and weight: read from INCAR                         
   0.00000000  0.00000000  0.00000000       0.020
   0.05566928 -0.03214223  0.01136295       0.040
   0.11133856 -0.06428445  0.02272590       0.040
   0.05566928  0.03214002  0.00568062       0.040
   0.11133856 -0.00000221  0.01704357       0.040
   0.16700785 -0.03214443  0.02840652       0.040
  -0.05566928  0.09642447 -0.01704529       0.040
   0.00000000  0.06428224 -0.00568234       0.040
   0.11133856  0.06428004  0.01136123       0.040
   0.16700785  0.03213781  0.02272418       0.040
   0.22267713 -0.00000442  0.03408713       0.040
   0.00000000  0.12856449 -0.01136467       0.040
   0.05566928  0.09642226 -0.00000172       0.040
   0.00000000  0.00000000  0.04261363       0.020
   0.05566928 -0.03214223  0.05397658       0.040
   0.11133856 -0.06428445  0.06533953       0.040
   0.05566928  0.03214002  0.04829424       0.040
   0.11133856 -0.00000221  0.05965719       0.040
   0.16700785 -0.03214443  0.07102014       0.040
  -0.05566928  0.09642447  0.02556834       0.040
   0.00000000  0.06428224  0.03693129       0.040
   0.11133856  0.06428004  0.05397486       0.040
   0.16700785  0.03213781  0.06533781       0.040
   0.22267713 -0.00000442  0.07670076       0.040
   0.00000000  0.12856449  0.03124896       0.040
   0.05566928  0.09642226  0.04261191       0.040
 
 k-points in reciprocal lattice and weights: read from INCAR                         
   0.00000000  0.00000000  0.00000000       0.020
   0.20000000 -0.00000000  0.00000000       0.040
   0.40000000 -0.00000000  0.00000000       0.040
   0.00000000  0.20000000 -0.00000000       0.040
   0.20000000  0.20000000 -0.00000000       0.040
   0.40000000  0.20000000 -0.00000000       0.040
  -0.40000000  0.20000000  0.00000000       0.040
  -0.20000000  0.20000000 -0.00000000       0.040
   0.00000000  0.40000000 -0.00000000       0.040
   0.20000000  0.40000000 -0.00000000       0.040
   0.40000000  0.40000000 -0.00000000       0.040
  -0.40000000  0.40000000 -0.00000000       0.040
  -0.20000000  0.40000000 -0.00000000       0.040
   0.00000000  0.00000000  0.50000000       0.020
   0.20000000 -0.00000000  0.50000000       0.040
   0.40000000 -0.00000000  0.50000000       0.040
   0.00000000  0.20000000  0.50000000       0.040
   0.20000000  0.20000000  0.50000000       0.040
   0.40000000  0.20000000  0.50000000       0.040
  -0.40000000  0.20000000  0.50000000       0.040
  -0.20000000  0.20000000  0.50000000       0.040
   0.00000000  0.40000000  0.50000000       0.040
   0.20000000  0.40000000  0.50000000       0.040
   0.40000000  0.40000000  0.50000000       0.040
  -0.40000000  0.40000000  0.50000000       0.040
  -0.20000000  0.40000000  0.50000000       0.040
 
 position of ions in fractional coordinates (direct lattice) 
   0.00000000  0.00000000  0.00000000
   0.50000000  0.75000000  0.25000000
   0.00000000  0.50000000  0.50000000
   0.50000000  0.25000000  0.75000000
   0.75000006  0.37500003  0.12500001
   0.25000006  0.12500003  0.37500001
   0.75000006  0.87500003  0.62500001
   0.25000006  0.62500003  0.87500001
 
 position of ions in cartesian coordinates  (Angst):
   0.00000000  0.00000000  0.00000000
   1.79639300  1.03711670  2.93333400
   0.00014040  2.07423340  5.86666800
   0.00014890  0.00007100  8.80000200
   1.79632720 -1.03708130  1.46666711
   0.00007460  0.00003540  4.40000111
   1.79646760  1.03715210  7.33333511
   0.00021500  2.07426880 10.26666911
 


--------------------------------------------------------------------------------------------------------


 k-point  1 :   0.0000 0.0000 0.0000  plane waves:    3379
 k-point  2 :   0.2000-0.0000 0.0000  plane waves:    3364
 k-point  3 :   0.4000-0.0000 0.0000  plane waves:    3312
 k-point  4 :   0.0000 0.2000-0.0000  plane waves:    3334
 k-point  5 :   0.2000 0.2000-0.0000  plane waves:    3336
 k-point  6 :   0.4000 0.2000-0.0000  plane waves:    3312
 k-point  7 :  -0.4000 0.2000 0.0000  plane waves:    3336
 k-point  8 :  -0.2000 0.2000-0.0000  plane waves:    3334
 k-point  9 :   0.0000 0.4000-0.0000  plane waves:    3315
 k-point 10 :   0.2000 0.4000-0.0000  plane waves:    3330
 k-point 11 :   0.4000 0.4000-0.0000  plane waves:    3330
 k-point 12 :  -0.4000 0.4000-0.0000  plane waves:    3315
 k-point 13 :  -0.2000 0.4000-0.0000  plane waves:    3324
 k-point 14 :   0.0000 0.0000 0.5000  plane waves:    3372
 k-point 15 :   0.2000-0.0000 0.5000  plane waves:    3340
 k-point 16 :   0.4000-0.0000 0.5000  plane waves:    3327
 k-point 17 :   0.0000 0.2000 0.5000  plane waves:    3341
 k-point 18 :   0.2000 0.2000 0.5000  plane waves:    3336
 k-point 19 :   0.4000 0.2000 0.5000  plane waves:    3320
 k-point 20 :  -0.4000 0.2000 0.5000  plane waves:    3336
 k-point 21 :  -0.2000 0.2000 0.5000  plane waves:    3341
 k-point 22 :   0.0000 0.4000 0.5000  plane waves:    3314
 k-point 23 :   0.2000 0.4000 0.5000  plane waves:    3321
 k-point 24 :   0.4000 0.4000 0.5000  plane waves:    3321
 k-point 25 :  -0.4000 0.4000 0.5000  plane waves:    3314
 k-point 26 :  -0.2000 0.4000 0.5000  plane waves:    3334

 maximum and minimum number of plane-waves per node :       860      821

 maximum number of plane-waves:      3379
 maximum index in each direction: 
   IXMAX=    6   IYMAX=    6   IZMAX=   21
   IXMIN=   -6   IYMIN=   -6   IZMIN=  -22


 parallel 3D FFT for wavefunctions:
    minimum data exchange during FFTs selected (reduces bandwidth)
 parallel 3D FFT for charge:
    minimum data exchange during FFTs selected (reduces bandwidth)


 total amount of memory used by VASP MPI-rank0    66130. kBytes
=======================================================================

   base      :      30000. kBytes
   nonl-proj :      11343. kBytes
   fftplans  :       1170. kBytes
   grid      :       2828. kBytes
   one-center:        196. kBytes
   wavefun   :      20593. kBytes
 
     INWAV:  cpu time    0.0000: real time    0.0001
 Broyden mixing: mesh for mixing (old mesh)
   NGX = 13   NGY = 13   NGZ = 43
  (NGX  = 40   NGY  = 40   NGZ  =140)
  gives a total of   7267 points

 initial charge density was supplied:
 charge density of overlapping atoms calculated
 number of electron      92.0000000 magnetization       0.0000000
 keeping initial charge density in first step


--------------------------------------------------------------------------------------------------------


 Maximum index for augmentation-charges         1528 (set IRDMAX)


--------------------------------------------------------------------------------------------------------


 First call to EWALD:  gamma=   0.349
 Maximum number of real-space cells 4x 4x 1
 Maximum number of reciprocal cells 2x 2x 6

    FEWALD:  cpu time    0.0013: real time    0.0013


--------------------------------------- Iteration      1(   1)  ---------------------------------------


    POTLOK:  cpu time    0.0335: real time    0.0365
    SETDIJ:  cpu time    0.0098: real time    0.0099
     EDDAV:  cpu time    2.6617: real time    2.6769
       DOS:  cpu time    0.0031: real time    0.0032
    --------------------------------------------
      LOOP:  cpu time    2.7082: real time    2.7264

 eigenvalue-minimisations  :  6864
 total energy-change (2. order) : 0.1230287E+04  (-0.3059470E+04)
 number of electron      92.0000000 magnetization       0.0000000
 augmentation part       92.0000000 magnetization       0.0000000

 Free energy of the ion-electron system (eV)
  ---------------------------------------------------
  alpha Z        PSCENC =       906.21131108
  Ewald energy   TEWEN  =     -9706.50133840
  -Hartree energ DENC   =     -2789.90800795
  -exchange      EXHF   =         0.00000000
  -V(xc)+E(xc)   XCENC  =       454.87922778
  PAW double counting   =     10245.08530371   -10827.60657067
  entropy T*S    EENTRO =        -0.00212108
  eigenvalues    EBANDS =       739.47675941
  atomic energy  EATOM  =     12208.65233032
  Solvation  Ediel_sol  =         0.00000000
  ---------------------------------------------------
  free energy    TOTEN  =      1230.28689419 eV

  energy without entropy =     1230.28901527  energy(sigma->0) =     1230.28760122


--------------------------------------------------------------------------------------------------------




--------------------------------------- Iteration      1(   2)  ---------------------------------------


     EDDAV:  cpu time    2.9169: real time    2.9252
       DOS:  cpu time    0.0035: real time    0.0035
    --------------------------------------------
      LOOP:  cpu time    2.9204: real time    2.9287

 eigenvalue-minimisations  :  7808
 total energy-change (2. order) :-0.9114434E+03  (-0.8271010E+03)
 number of electron      92.0000000 magnetization       0.0000000
 augmentation part       92.0000000 magnetization       0.0000000

 Free energy of the ion-electron system (eV)
  ---------------------------------------------------
  alpha Z        PSCENC =       906.21131108
  Ewald energy   TEWEN  =     -9706.50133840
  -Hartree energ DENC   =     -2789.90800795
  -exchange      EXHF   =         0.00000000
  -V(xc)+E(xc)   XCENC  =       454.87922778
  PAW double counting   =     10245.08530371   -10827.60657067
  entropy T*S    EENTRO =        -0.00153188
  eigenvalues    EBANDS =      -171.96721721
  atomic energy  EATOM  =     12208.65233032
  Solvation  Ediel_sol  =         0.00000000
  ---------------------------------------------------
  free energy    TOTEN  =       318.84350678 eV

  energy without entropy =      318.84503866  energy(sigma->0) =      318.84401741


--------------------------------------------------------------------------------------------------------




--------------------------------------- Iteration      1(   3)  ---------------------------------------


     EDDAV:  cpu time    3.1228: real time    3.1302
       DOS:  cpu time    0.0034: real time    0.0034
    --------------------------------------------
      LOOP:  cpu time    3.1262: real time    3.1336

 eigenvalue-minimisations  :  8464
 total energy-change (2. order) :-0.3289612E+03  (-0.3187299E+03)
 number of electron      92.0000000 magnetization       0.0000000
 augmentation part       92.0000000 magnetization       0.0000000

 Free energy of the ion-electron system (eV)
  ---------------------------------------------------
  alpha Z        PSCENC =       906.21131108
  Ewald energy   TEWEN  =     -9706.50133840
  -Hartree energ DENC   =     -2789.90800795
  -exchange      EXHF   =         0.00000000
  -V(xc)+E(xc)   XCENC  =       454.87922778
  PAW double counting   =     10245.08530371   -10827.60657067
  entropy T*S    EENTRO =        -0.00118955
  eigenvalues    EBANDS =      -500.92871467
  atomic energy  EATOM  =     12208.65233032
  Solvation  Ediel_sol  =         0.00000000
  ---------------------------------------------------
  free energy    TOTEN  =       -10.11764835 eV

  energy without entropy =      -10.11645880  energy(sigma->0) =      -10.11725183


--------------------------------------------------------------------------------------------------------




--------------------------------------- Iteration      1(   4)  ---------------------------------------


     EDDAV:  cpu time    3.9434: real time    3.9528
       DOS:  cpu time    0.0041: real time    0.0041
    --------------------------------------------
      LOOP:  cpu time    3.9475: real time    3.9569

 eigenvalue-minimisations  : 11104
 total energy-change (2. order) :-0.7050346E+02  (-0.6858957E+02)
 number of electron      92.0000000 magnetization       0.0000000
 augmentation part       92.0000000 magnetization       0.0000000

 Free energy of the ion-electron system (eV)
  ---------------------------------------------------
  alpha Z        PSCENC =       906.21131108
  Ewald energy   TEWEN  =     -9706.50133840
  -Hartree energ DENC   =     -2789.90800795
  -exchange      EXHF   =         0.00000000
  -V(xc)+E(xc)   XCENC  =       454.87922778
  PAW double counting   =     10245.08530371   -10827.60657067
  entropy T*S    EENTRO =         0.01344445
  eigenvalues    EBANDS =      -571.44680465
  atomic energy  EATOM  =     12208.65233032
  Solvation  Ediel_sol  =         0.00000000
  ---------------------------------------------------
  free energy    TOTEN  =       -80.62110433 eV

  energy without entropy =      -80.63454878  energy(sigma->0) =      -80.62558582


--------------------------------------------------------------------------------------------------------




--------------------------------------- Iteration      1(   5)  ---------------------------------------


     EDDAV:  cpu time    3.5884: real time    3.5969
       DOS:  cpu time    0.0042: real time    0.0042
    CHARGE:  cpu time    0.1813: real time    0.1817
    MIXING:  cpu time    0.0008: real time    0.0008
    --------------------------------------------
      LOOP:  cpu time    3.7746: real time    3.7836

 eigenvalue-minimisations  : 11200
 total energy-change (2. order) :-0.8257887E+01  (-0.7605996E+01)
 number of electron      92.0000138 magnetization       0.0000000
 augmentation part       18.4568793 magnetization       0.0000000

 Broyden mixing:
  rms(total) = 0.37668E+01    rms(broyden)= 0.37666E+01
  rms(prec ) = 0.47207E+01
  weight for this iteration     100.00

 Free energy of the ion-electron system (eV)
  ---------------------------------------------------
  alpha Z        PSCENC =       906.21131108
  Ewald energy   TEWEN  =     -9706.50133840
  -Hartree energ DENC   =     -2789.90800795
  -exchange      EXHF   =         0.00000000
  -V(xc)+E(xc)   XCENC  =       454.87922778
  PAW double counting   =     10245.08530371   -10827.60657067
  entropy T*S    EENTRO =        -0.03526510
  eigenvalues    EBANDS =      -579.65598240
  atomic energy  EATOM  =     12208.65233032
  Solvation  Ediel_sol  =         0.00000000
  ---------------------------------------------------
  free energy    TOTEN  =       -88.87899163 eV

  energy without entropy =      -88.84372654  energy(sigma->0) =      -88.86723660


--------------------------------------------------------------------------------------------------------




--------------------------------------- Iteration      1(   6)  ---------------------------------------


    POTLOK:  cpu time    0.0281: real time    0.0282
    SETDIJ:  cpu time    0.0102: real time    0.0102
     EDDAV:  cpu time    3.5138: real time    3.5221
       DOS:  cpu time    0.0037: real time    0.0037
    CHARGE:  cpu time    0.1630: real time    0.1634
    MIXING:  cpu time    0.0009: real time    0.0009
    --------------------------------------------
      LOOP:  cpu time    3.7197: real time    3.7286

 eigenvalue-minimisations  :  9808
 total energy-change (2. order) :-0.5645228E+02  (-0.7744065E+02)
 number of electron      92.0000070 magnetization       0.0000000
 augmentation part       44.2399406 magnetization       0.0000000

 Broyden mixing:
  rms(total) = 0.15427E+02    rms(broyden)= 0.15426E+02
  rms(prec ) = 0.18220E+02
  weight for this iteration     100.00

 eigenvalues of (default mixing * dielectric matrix)
  average eigenvalue GAMMA=   0.1488
  0.1488

 Free energy of the ion-electron system (eV)
  ---------------------------------------------------
  alpha Z        PSCENC =       906.21131108
  Ewald energy   TEWEN  =     -9706.50133840
  -Hartree energ DENC   =     -2548.56267784
  -exchange      EXHF   =         0.00000000
  -V(xc)+E(xc)   XCENC  =       449.65682676
  PAW double counting   =      9893.89676565   -10378.16936143
  entropy T*S    EENTRO =         0.00134916
  eigenvalues    EBANDS =      -970.51647688
  atomic energy  EATOM  =     12208.65233032
  Solvation  Ediel_sol  =         0.00000000
  ---------------------------------------------------
  free energy    TOTEN  =      -145.33127157 eV

  energy without entropy =     -145.33262074  energy(sigma->0) =     -145.33172130


--------------------------------------------------------------------------------------------------------




--------------------------------------- Iteration      1(   7)  ---------------------------------------


    POTLOK:  cpu time    0.0292: real time    0.0294
    SETDIJ:  cpu time    0.0094: real time    0.0095
     EDDAV:  cpu time    3.3542: real time    3.3621
       DOS:  cpu time    0.0033: real time    0.0034
    CHARGE:  cpu time    0.1748: real time    0.1752
    MIXING:  cpu time    0.0010: real time    0.0010
    --------------------------------------------
      LOOP:  cpu time    3.5720: real time    3.5805

 eigenvalue-minimisations  :  9168
 total energy-change (2. order) : 0.9500120E+02  (-0.8591963E+02)
 number of electron      92.0000110 magnetization       0.0000000
 augmentation part       23.3498300 magnetization       0.0000000

 Broyden mixing:
  rms(total) = 0.55686E+01    rms(broyden)= 0.55683E+01
  rms(prec ) = 0.56156E+01
  weight for this iteration     100.00

 eigenvalues of (default mixing * dielectric matrix)
  average eigenvalue GAMMA=   0.1368
  0.1368  0.1368

 Free energy of the ion-electron system (eV)
  ---------------------------------------------------
  alpha Z        PSCENC =       906.21131108
  Ewald energy   TEWEN  =     -9706.50133840
  -Hartree energ DENC   =     -2697.35333274
  -exchange      EXHF   =         0.00000000
  -V(xc)+E(xc)   XCENC  =       450.83060624
  PAW double counting   =     10277.73303468   -10854.49496828
  entropy T*S    EENTRO =        -0.00162531
  eigenvalues    EBANDS =      -635.40608512
  atomic energy  EATOM  =     12208.65233032
  Solvation  Ediel_sol  =         0.00000000
  ---------------------------------------------------
  free energy    TOTEN  =       -50.33006752 eV

  energy without entropy =      -50.32844222  energy(sigma->0) =      -50.32952575


--------------------------------------------------------------------------------------------------------




--------------------------------------- Iteration      1(   8)  ---------------------------------------


    POTLOK:  cpu time    0.0311: real time    0.0312
    SETDIJ:  cpu time    0.0109: real time    0.0109
     EDDAV:  cpu time    3.6690: real time    3.6777
       DOS:  cpu time    0.0036: real time    0.0036
    CHARGE:  cpu time    0.1655: real time    0.1659
    MIXING:  cpu time    0.0014: real time    0.0014
    --------------------------------------------
      LOOP:  cpu time    3.8815: real time    3.8907

 eigenvalue-minimisations  : 10248
 total energy-change (2. order) :-0.3005814E+02  (-0.2776878E+02)
 number of electron      92.0000134 magnetization       0.0000000
 augmentation part       24.2263544 magnetization       0.0000000

 Broyden mixing:
  rms(total) = 0.31676E+01    rms(broyden)= 0.31673E+01
  rms(prec ) = 0.32303E+01
  weight for this iteration     100.00

 eigenvalues of (default mixing * dielectric matrix)
  average eigenvalue GAMMA=   0.2391
  0.2595  0.2289  0.2289

 Free energy of the ion-electron system (eV)
  ---------------------------------------------------
  alpha Z        PSCENC =       906.21131108
  Ewald energy   TEWEN  =     -9706.50133840
  -Hartree energ DENC   =     -2697.74881598
  -exchange      EXHF   =         0.00000000
  -V(xc)+E(xc)   XCENC  =       451.89742373
  PAW double counting   =     10302.18279995   -10881.20838761
  entropy T*S    EENTRO =        -0.00212594
  eigenvalues    EBANDS =      -663.87140190
  atomic energy  EATOM  =     12208.65233032
  Solvation  Ediel_sol  =         0.00000000
  ---------------------------------------------------
  free energy    TOTEN  =       -80.38820476 eV

  energy without entropy =      -80.38607882  energy(sigma->0) =      -80.38749611


--------------------------------------------------------------------------------------------------------




--------------------------------------- Iteration      1(   9)  ---------------------------------------


    POTLOK:  cpu time    0.0303: real time    0.0304
    SETDIJ:  cpu time    0.0098: real time    0.0098
     EDDAV:  cpu time    3.3297: real time    3.3375
       DOS:  cpu time    0.0040: real time    0.0040
    CHARGE:  cpu time    0.1625: real time    0.1629
    MIXING:  cpu time    0.0011: real time    0.0011
    --------------------------------------------
      LOOP:  cpu time    3.5374: real time    3.5458

 eigenvalue-minimisations  :  9096
 total energy-change (2. order) :-0.2182677E+01  (-0.2813479E+01)
 number of electron      92.0000129 magnetization       0.0000000
 augmentation part       22.4148160 magnetization       0.0000000

 Broyden mixing:
  rms(total) = 0.16649E+01    rms(broyden)= 0.16649E+01
  rms(prec ) = 0.17320E+01
  weight for this iteration     100.00

 eigenvalues of (default mixing * dielectric matrix)
  average eigenvalue GAMMA=   0.4161
  0.5963  0.5963  0.2359  0.2359

 Free energy of the ion-electron system (eV)
  ---------------------------------------------------
  alpha Z        PSCENC =       906.21131108
  Ewald energy   TEWEN  =     -9706.50133840
  -Hartree energ DENC   =     -2762.83057925
  -exchange      EXHF   =         0.00000000
  -V(xc)+E(xc)   XCENC  =       457.96938725
  PAW double counting   =     10405.06817151   -11010.45717817
  entropy T*S    EENTRO =         0.03148148
  eigenvalues    EBANDS =      -580.71446711
  atomic energy  EATOM  =     12208.65233032
  Solvation  Ediel_sol  =         0.00000000
  ---------------------------------------------------
  free energy    TOTEN  =       -82.57088129 eV

  energy without entropy =      -82.60236277  energy(sigma->0) =      -82.58137512


--------------------------------------------------------------------------------------------------------




--------------------------------------- Iteration      1(  10)  ---------------------------------------


    POTLOK:  cpu time    0.0294: real time    0.0296
    SETDIJ:  cpu time    0.0103: real time    0.0103
     EDDAV:  cpu time    3.7282: real time    3.7370
       DOS:  cpu time    0.0039: real time    0.0039
    CHARGE:  cpu time    0.1737: real time    0.1741
    MIXING:  cpu time    0.0011: real time    0.0011
    --------------------------------------------
      LOOP:  cpu time    3.9466: real time    3.9560

 eigenvalue-minimisations  : 11544
 total energy-change (2. order) :-0.6783689E+00  (-0.3328241E+00)
 number of electron      92.0000127 magnetization       0.0000000
 augmentation part       22.2912123 magnetization       0.0000000

 Broyden mixing:
  rms(total) = 0.13432E+01    rms(broyden)= 0.13432E+01
  rms(prec ) = 0.14161E+01
  weight for this iteration     100.00

 eigenvalues of (default mixing * dielectric matrix)
  average eigenvalue GAMMA=   0.4845
  0.7849  0.7849  0.2390  0.2390  0.3749

 Free energy of the ion-electron system (eV)
  ---------------------------------------------------
  alpha Z        PSCENC =       906.21131108
  Ewald energy   TEWEN  =     -9706.50133840
  -Hartree energ DENC   =     -2769.89145890
  -exchange      EXHF   =         0.00000000
  -V(xc)+E(xc)   XCENC  =       459.61743443
  PAW double counting   =     10447.80719961   -11060.51752048
  entropy T*S    EENTRO =         0.03033711
  eigenvalues    EBANDS =      -568.65754498
  atomic energy  EATOM  =     12208.65233032
  Solvation  Ediel_sol  =         0.00000000
  ---------------------------------------------------
  free energy    TOTEN  =       -83.24925021 eV

  energy without entropy =      -83.27958732  energy(sigma->0) =      -83.25936258


--------------------------------------------------------------------------------------------------------




--------------------------------------- Iteration      1(  11)  ---------------------------------------


    POTLOK:  cpu time    0.0279: real time    0.0280
    SETDIJ:  cpu time    0.0105: real time    0.0105
     EDDAV:  cpu time    3.9282: real time    3.9374
       DOS:  cpu time    0.0041: real time    0.0041
    CHARGE:  cpu time    0.1734: real time    0.1738
    MIXING:  cpu time    0.0013: real time    0.0013
    --------------------------------------------
      LOOP:  cpu time    4.1453: real time    4.1551

 eigenvalue-minimisations  : 10976
 total energy-change (2. order) : 0.3369217E-01  (-0.3844386E-01)
 number of electron      92.0000128 magnetization      -0.0000000
 augmentation part       22.5547331 magnetization      -0.0000000

 Broyden mixing:
  rms(total) = 0.11877E+01    rms(broyden)= 0.11877E+01
  rms(prec ) = 0.12308E+01
  weight for this iteration     100.00

 eigenvalues of (default mixing * dielectric matrix)
  average eigenvalue GAMMA=   0.7277
  1.6187  1.2580  0.2390  0.2390  0.5058  0.5058

 Free energy of the ion-electron system (eV)
  ---------------------------------------------------
  alpha Z        PSCENC =       906.21131108
  Ewald energy   TEWEN  =     -9706.50133840
  -Hartree energ DENC   =     -2765.81921154
  -exchange      EXHF   =         0.00000000
  -V(xc)+E(xc)   XCENC  =       460.38105391
  PAW double counting   =     10470.77196317   -11084.55754179
  entropy T*S    EENTRO =         0.02938163
  eigenvalues    EBANDS =      -572.38350641
  atomic energy  EATOM  =     12208.65233032
  Solvation  Ediel_sol  =         0.00000000
  ---------------------------------------------------
  free energy    TOTEN  =       -83.21555804 eV

  energy without entropy =      -83.24493966  energy(sigma->0) =      -83.22535191


--------------------------------------------------------------------------------------------------------




--------------------------------------- Iteration      1(  12)  ---------------------------------------


    POTLOK:  cpu time    0.0303: real time    0.0304
    SETDIJ:  cpu time    0.0095: real time    0.0095
     EDDAV:  cpu time    3.6485: real time    3.6571
       DOS:  cpu time    0.0041: real time    0.0041
    CHARGE:  cpu time    0.1655: real time    0.1659
    MIXING:  cpu time    0.0013: real time    0.0013
    --------------------------------------------
      LOOP:  cpu time    3.8592: real time    3.8684

 eigenvalue-minimisations  : 10120
 total energy-change (2. order) :-0.1057414E+00  (-0.8403470E-01)
 number of electron      92.0000127 magnetization      -0.0000000
 augmentation part       23.0381880 magnetization      -0.0000000

 Broyden mixing:
  rms(total) = 0.81479E+00    rms(broyden)= 0.81478E+00
  rms(prec ) = 0.82567E+00
  weight for this iteration     100.00

 eigenvalues of (default mixing * dielectric matrix)
  average eigenvalue GAMMA=   0.7995
  2.0978  1.3209  0.2391  0.2391  0.4321  0.6337  0.6337

 Free energy of the ion-electron system (eV)
  ---------------------------------------------------
  alpha Z        PSCENC =       906.21131108
  Ewald energy   TEWEN  =     -9706.50133840
  -Hartree energ DENC   =     -2761.76043398
  -exchange      EXHF   =         0.00000000
  -V(xc)+E(xc)   XCENC  =       462.87379517
  PAW double counting   =     10534.16302004   -11150.68933660
  entropy T*S    EENTRO =         0.02034191
  eigenvalues    EBANDS =      -576.29098901
  atomic energy  EATOM  =     12208.65233032
  Solvation  Ediel_sol  =         0.00000000
  ---------------------------------------------------
  free energy    TOTEN  =       -83.32129947 eV

  energy without entropy =      -83.34164138  energy(sigma->0) =      -83.32808011


--------------------------------------------------------------------------------------------------------




--------------------------------------- Iteration      1(  13)  ---------------------------------------


    POTLOK:  cpu time    0.0305: real time    0.0306
    SETDIJ:  cpu time    0.0098: real time    0.0098
     EDDAV:  cpu time    3.8485: real time    3.8576
       DOS:  cpu time    0.0038: real time    0.0038
    CHARGE:  cpu time    0.1626: real time    0.1630
    MIXING:  cpu time    0.0013: real time    0.0013
    --------------------------------------------
      LOOP:  cpu time    4.0566: real time    4.0662

 eigenvalue-minimisations  : 11424
 total energy-change (2. order) :-0.5619434E-01  (-0.2230160E-01)
 number of electron      92.0000126 magnetization      -0.0000000
 augmentation part       23.0671869 magnetization      -0.0000000

 Broyden mixing:
  rms(total) = 0.72591E+00    rms(broyden)= 0.72591E+00
  rms(prec ) = 0.74207E+00
  weight for this iteration     100.00

 eigenvalues of (default mixing * dielectric matrix)
  average eigenvalue GAMMA=   0.7540
  2.2123  1.3293  0.6524  0.6524  0.2393  0.2393  0.4026  0.3041

 Free energy of the ion-electron system (eV)
  ---------------------------------------------------
  alpha Z        PSCENC =       906.21131108
  Ewald energy   TEWEN  =     -9706.50133840
  -Hartree energ DENC   =     -2762.14127533
  -exchange      EXHF   =         0.00000000
  -V(xc)+E(xc)   XCENC  =       463.56740126
  PAW double counting   =     10532.75951436   -11148.95239944
  entropy T*S    EENTRO =         0.01783958
  eigenvalues    EBANDS =      -576.99087723
  atomic energy  EATOM  =     12208.65233032
  Solvation  Ediel_sol  =         0.00000000
  ---------------------------------------------------
  free energy    TOTEN  =       -83.37749381 eV

  energy without entropy =      -83.39533339  energy(sigma->0) =      -83.38344033


--------------------------------------------------------------------------------------------------------




--------------------------------------- Iteration      1(  14)  ---------------------------------------


    POTLOK:  cpu time    0.0275: real time    0.0276
    SETDIJ:  cpu time    0.0091: real time    0.0092
     EDDAV:  cpu time    3.3346: real time    3.3424
       DOS:  cpu time    0.0039: real time    0.0039
    CHARGE:  cpu time    0.1593: real time    0.1596
    MIXING:  cpu time    0.0015: real time    0.0015
    --------------------------------------------
      LOOP:  cpu time    3.5358: real time    3.5442

 eigenvalue-minimisations  : 10200
 total energy-change (2. order) :-0.1113985E-01  (-0.2673914E-02)
 number of electron      92.0000126 magnetization      -0.0000000
 augmentation part       23.1298866 magnetization      -0.0000000

 Broyden mixing:
  rms(total) = 0.68100E+00    rms(broyden)= 0.68100E+00
  rms(prec ) = 0.69694E+00
  weight for this iteration     100.00

 eigenvalues of (default mixing * dielectric matrix)
  average eigenvalue GAMMA=   0.9576
  2.2855  2.2855  0.9634  0.9634  0.2391  0.2391  0.4524  0.5949  0.5949

 Free energy of the ion-electron system (eV)
  ---------------------------------------------------
  alpha Z        PSCENC =       906.21131108
  Ewald energy   TEWEN  =     -9706.50133840
  -Hartree energ DENC   =     -2761.26330977
  -exchange      EXHF   =         0.00000000
  -V(xc)+E(xc)   XCENC  =       463.94463786
  PAW double counting   =     10534.66583290   -11149.96380361
  entropy T*S    EENTRO =         0.01526477
  eigenvalues    EBANDS =      -579.14955881
  atomic energy  EATOM  =     12208.65233032
  Solvation  Ediel_sol  =         0.00000000
  ---------------------------------------------------
  free energy    TOTEN  =       -83.38863365 eV

  energy without entropy =      -83.40389843  energy(sigma->0) =      -83.39372191


--------------------------------------------------------------------------------------------------------




--------------------------------------- Iteration      1(  15)  ---------------------------------------


    POTLOK:  cpu time    0.0277: real time    0.0279
    SETDIJ:  cpu time    0.0092: real time    0.0092
     EDDAV:  cpu time    3.1855: real time    3.1930
       DOS:  cpu time    0.0038: real time    0.0038
    CHARGE:  cpu time    0.1494: real time    0.1498
    MIXING:  cpu time    0.0015: real time    0.0015
    --------------------------------------------
      LOOP:  cpu time    3.3771: real time    3.3852

 eigenvalue-minimisations  :  9960
 total energy-change (2. order) :-0.3612843E-01  (-0.1124206E-01)
 number of electron      92.0000126 magnetization      -0.0000000
 augmentation part       23.3367038 magnetization      -0.0000000

 Broyden mixing:
  rms(total) = 0.48908E+00    rms(broyden)= 0.48908E+00
  rms(prec ) = 0.51561E+00
  weight for this iteration     100.00

 eigenvalues of (default mixing * dielectric matrix)
  average eigenvalue GAMMA=   1.0858
  2.9322  2.9322  1.5611  0.2391  0.2391  0.6981  0.6981  0.4655  0.5465  0.5465

 Free energy of the ion-electron system (eV)
  ---------------------------------------------------
  alpha Z        PSCENC =       906.21131108
  Ewald energy   TEWEN  =     -9706.50133840
  -Hartree energ DENC   =     -2760.36056786
  -exchange      EXHF   =         0.00000000
  -V(xc)+E(xc)   XCENC  =       465.45362674
  PAW double counting   =     10547.53475475   -11158.89413917
  entropy T*S    EENTRO =         0.00484335
  eigenvalues    EBANDS =      -585.52558288
  atomic energy  EATOM  =     12208.65233032
  Solvation  Ediel_sol  =         0.00000000
  ---------------------------------------------------
  free energy    TOTEN  =       -83.42476208 eV

  energy without entropy =      -83.42960543  energy(sigma->0) =      -83.42637653


--------------------------------------------------------------------------------------------------------




--------------------------------------- Iteration      1(  16)  ---------------------------------------


    POTLOK:  cpu time    0.0277: real time    0.0278
    SETDIJ:  cpu time    0.0092: real time    0.0092
     EDDAV:  cpu time    3.3217: real time    3.3296
       DOS:  cpu time    0.0038: real time    0.0038
    CHARGE:  cpu time    0.1536: real time    0.1540
    MIXING:  cpu time    0.0016: real time    0.0016
    --------------------------------------------
      LOOP:  cpu time    3.5177: real time    3.5260

 eigenvalue-minimisations  : 10440
 total energy-change (2. order) : 0.3542213E-01  (-0.1077404E-01)
 number of electron      92.0000127 magnetization      -0.0000000
 augmentation part       23.5469010 magnetization      -0.0000000

 Broyden mixing:
  rms(total) = 0.47721E+00    rms(broyden)= 0.47721E+00
  rms(prec ) = 0.51444E+00
  weight for this iteration     100.00

 eigenvalues of (default mixing * dielectric matrix)
  average eigenvalue GAMMA=   1.3060
  4.5184  3.0257  2.3824  0.8419  0.8419  0.2391  0.2391  0.6398  0.6398  0.4635
  0.5342

 Free energy of the ion-electron system (eV)
  ---------------------------------------------------
  alpha Z        PSCENC =       906.21131108
  Ewald energy   TEWEN  =     -9706.50133840
  -Hartree energ DENC   =     -2758.45892266
  -exchange      EXHF   =         0.00000000
  -V(xc)+E(xc)   XCENC  =       466.88891884
  PAW double counting   =     10568.28610735   -11177.80671631
  entropy T*S    EENTRO =         0.00069809
  eigenvalues    EBANDS =      -590.66172827
  atomic energy  EATOM  =     12208.65233032
  Solvation  Ediel_sol  =         0.00000000
  ---------------------------------------------------
  free energy    TOTEN  =       -83.38933995 eV

  energy without entropy =      -83.39003804  energy(sigma->0) =      -83.38957265


--------------------------------------------------------------------------------------------------------




--------------------------------------- Iteration      1(  17)  ---------------------------------------


    POTLOK:  cpu time    0.0278: real time    0.0287
    SETDIJ:  cpu time    0.0092: real time    0.0092
     EDDAV:  cpu time    3.2558: real time    3.2635
       DOS:  cpu time    0.0039: real time    0.0039
    CHARGE:  cpu time    0.1496: real time    0.1499
    MIXING:  cpu time    0.0018: real time    0.0018
    --------------------------------------------
      LOOP:  cpu time    3.4479: real time    3.4570

 eigenvalue-minimisations  : 10184
 total energy-change (2. order) : 0.7002092E-01  (-0.9282421E-02)
 number of electron      92.0000128 magnetization      -0.0000000
 augmentation part       23.4517906 magnetization      -0.0000000

 Broyden mixing:
  rms(total) = 0.42385E+00    rms(broyden)= 0.42384E+00
  rms(prec ) = 0.44163E+00
  weight for this iteration     100.00

 eigenvalues of (default mixing * dielectric matrix)
  average eigenvalue GAMMA=   1.3180
  4.0789  4.0789  2.6282  0.8856  0.8856  0.2391  0.2391  0.6768  0.6768  0.4980
  0.4980  0.4306

 Free energy of the ion-electron system (eV)
  ---------------------------------------------------
  alpha Z        PSCENC =       906.21131108
  Ewald energy   TEWEN  =     -9706.50133840
  -Hartree energ DENC   =     -2757.55090245
  -exchange      EXHF   =         0.00000000
  -V(xc)+E(xc)   XCENC  =       466.70621193
  PAW double counting   =     10579.65393377   -11191.12259412
  entropy T*S    EENTRO =         0.00348817
  eigenvalues    EBANDS =      -589.37175933
  atomic energy  EATOM  =     12208.65233032
  Solvation  Ediel_sol  =         0.00000000
  ---------------------------------------------------
  free energy    TOTEN  =       -83.31931903 eV

  energy without entropy =      -83.32280720  energy(sigma->0) =      -83.32048175


--------------------------------------------------------------------------------------------------------




--------------------------------------- Iteration      1(  18)  ---------------------------------------


    POTLOK:  cpu time    0.0278: real time    0.0280
    SETDIJ:  cpu time    0.0092: real time    0.0092
     EDDAV:  cpu time    3.3047: real time    3.3125
       DOS:  cpu time    0.0040: real time    0.0040
    CHARGE:  cpu time    0.1640: real time    0.1643
    MIXING:  cpu time    0.0019: real time    0.0019
    --------------------------------------------
      LOOP:  cpu time    3.5116: real time    3.5200

 eigenvalue-minimisations  : 10176
 total energy-change (2. order) :-0.2026407E-01  (-0.9976753E-02)
 number of electron      92.0000128 magnetization      -0.0000000
 augmentation part       23.3440198 magnetization      -0.0000000

 Broyden mixing:
  rms(total) = 0.21829E+00    rms(broyden)= 0.21828E+00
  rms(prec ) = 0.22567E+00
  weight for this iteration     100.00

 eigenvalues of (default mixing * dielectric matrix)
  average eigenvalue GAMMA=   1.3502
  4.4149  4.4149  2.5605  0.9995  0.9995  0.2391  0.2391  0.7606  0.7606  0.4597
  0.5792  0.5792  0.5456

 Free energy of the ion-electron system (eV)
  ---------------------------------------------------
  alpha Z        PSCENC =       906.21131108
  Ewald energy   TEWEN  =     -9706.50133840
  -Hartree energ DENC   =     -2755.92685373
  -exchange      EXHF   =         0.00000000
  -V(xc)+E(xc)   XCENC  =       465.57513797
  PAW double counting   =     10577.92984044   -11191.29640197
  entropy T*S    EENTRO =         0.00981942
  eigenvalues    EBANDS =      -587.99342822
  atomic energy  EATOM  =     12208.65233032
  Solvation  Ediel_sol  =         0.00000000
  ---------------------------------------------------
  free energy    TOTEN  =       -83.33958310 eV

  energy without entropy =      -83.34940252  energy(sigma->0) =      -83.34285624


--------------------------------------------------------------------------------------------------------




--------------------------------------- Iteration      1(  19)  ---------------------------------------


    POTLOK:  cpu time    0.0284: real time    0.0285
    SETDIJ:  cpu time    0.0093: real time    0.0093
     EDDAV:  cpu time    3.6947: real time    3.7035
       DOS:  cpu time    0.0039: real time    0.0039
    CHARGE:  cpu time    0.1588: real time    0.1592
    MIXING:  cpu time    0.0022: real time    0.0022
    --------------------------------------------
      LOOP:  cpu time    3.8974: real time    3.9067

 eigenvalue-minimisations  : 11384
 total energy-change (2. order) :-0.8824411E-02  (-0.2611750E-02)
 number of electron      92.0000129 magnetization       0.0000000
 augmentation part       23.3357364 magnetization       0.0000000

 Broyden mixing:
  rms(total) = 0.12259E+00    rms(broyden)= 0.12258E+00
  rms(prec ) = 0.12691E+00
  weight for this iteration     100.00

 eigenvalues of (default mixing * dielectric matrix)
  average eigenvalue GAMMA=   1.3496
  4.6983  4.6983  2.3978  1.1179  1.1179  0.2391  0.2391  0.7867  0.7867  0.6542
  0.6542  0.4563  0.5236  0.5236

 Free energy of the ion-electron system (eV)
  ---------------------------------------------------
  alpha Z        PSCENC =       906.21131108
  Ewald energy   TEWEN  =     -9706.50133840
  -Hartree energ DENC   =     -2754.58751954
  -exchange      EXHF   =         0.00000000
  -V(xc)+E(xc)   XCENC  =       465.06169744
  PAW double counting   =     10577.74526511   -11191.17541127
  entropy T*S    EENTRO =         0.01139132
  eigenvalues    EBANDS =      -588.76613357
  atomic energy  EATOM  =     12208.65233032
  Solvation  Ediel_sol  =         0.00000000
  ---------------------------------------------------
  free energy    TOTEN  =       -83.34840751 eV

  energy without entropy =      -83.35979883  energy(sigma->0) =      -83.35220461


--------------------------------------------------------------------------------------------------------




--------------------------------------- Iteration      1(  20)  ---------------------------------------


    POTLOK:  cpu time    0.0289: real time    0.0290
    SETDIJ:  cpu time    0.0094: real time    0.0094
     EDDAV:  cpu time    3.5527: real time    3.5611
       DOS:  cpu time    0.0038: real time    0.0038
    CHARGE:  cpu time    0.1530: real time    0.1533
    MIXING:  cpu time    0.0022: real time    0.0022
    --------------------------------------------
      LOOP:  cpu time    3.7499: real time    3.7588

 eigenvalue-minimisations  : 10936
 total energy-change (2. order) :-0.2236487E-02  (-0.7474648E-03)
 number of electron      92.0000129 magnetization       0.0000000
 augmentation part       23.3121529 magnetization       0.0000000

 Broyden mixing:
  rms(total) = 0.50559E-01    rms(broyden)= 0.50558E-01
  rms(prec ) = 0.52711E-01
  weight for this iteration     100.00

 eigenvalues of (default mixing * dielectric matrix)
  average eigenvalue GAMMA=   1.4009
  4.7910  4.7910  2.2276  2.2276  0.9992  0.9992  0.2391  0.2391  0.8052  0.8052
  0.6745  0.6745  0.4578  0.5411  0.5411

 Free energy of the ion-electron system (eV)
  ---------------------------------------------------
  alpha Z        PSCENC =       906.21131108
  Ewald energy   TEWEN  =     -9706.50133840
  -Hartree energ DENC   =     -2754.03122337
  -exchange      EXHF   =         0.00000000
  -V(xc)+E(xc)   XCENC  =       464.68699696
  PAW double counting   =     10574.88814362   -11188.53839448
  entropy T*S    EENTRO =         0.01320010
  eigenvalues    EBANDS =      -588.73166983
  atomic energy  EATOM  =     12208.65233032
  Solvation  Ediel_sol  =         0.00000000
  ---------------------------------------------------
  free energy    TOTEN  =       -83.35064400 eV

  energy without entropy =      -83.36384410  energy(sigma->0) =      -83.35504403


--------------------------------------------------------------------------------------------------------




--------------------------------------- Iteration      1(  21)  ---------------------------------------


    POTLOK:  cpu time    0.0284: real time    0.0285
    SETDIJ:  cpu time    0.0094: real time    0.0094
     EDDAV:  cpu time    3.6399: real time    3.6485
       DOS:  cpu time    0.0039: real time    0.0039
    CHARGE:  cpu time    0.1549: real time    0.1553
    MIXING:  cpu time    0.0023: real time    0.0023
    --------------------------------------------
      LOOP:  cpu time    3.8388: real time    3.8479

 eigenvalue-minimisations  : 11160
 total energy-change (2. order) :-0.5203889E-03  (-0.4006785E-03)
 number of electron      92.0000129 magnetization       0.0000000
 augmentation part       23.3009511 magnetization       0.0000000

 Broyden mixing:
  rms(total) = 0.21953E-01    rms(broyden)= 0.21950E-01
  rms(prec ) = 0.22827E-01
  weight for this iteration     100.00

 eigenvalues of (default mixing * dielectric matrix)
  average eigenvalue GAMMA=   1.3833
  4.8325  4.8325  2.4137  2.4137  1.0077  1.0077  0.2391  0.2391  0.8026  0.8026
  0.6881  0.6881  0.4578  0.6326  0.5371  0.5371

 Free energy of the ion-electron system (eV)
  ---------------------------------------------------
  alpha Z        PSCENC =       906.21131108
  Ewald energy   TEWEN  =     -9706.50133840
  -Hartree energ DENC   =     -2753.75812581
  -exchange      EXHF   =         0.00000000
  -V(xc)+E(xc)   XCENC  =       464.53066501
  PAW double counting   =     10573.31752314   -11187.22817430
  entropy T*S    EENTRO =         0.01409054
  eigenvalues    EBANDS =      -588.58944596
  atomic energy  EATOM  =     12208.65233032
  Solvation  Ediel_sol  =         0.00000000
  ---------------------------------------------------
  free energy    TOTEN  =       -83.35116438 eV

  energy without entropy =      -83.36525492  energy(sigma->0) =      -83.35586123


--------------------------------------------------------------------------------------------------------




--------------------------------------- Iteration      1(  22)  ---------------------------------------


    POTLOK:  cpu time    0.0284: real time    0.0285
    SETDIJ:  cpu time    0.0094: real time    0.0094
     EDDAV:  cpu time    3.5312: real time    3.5396
       DOS:  cpu time    0.0039: real time    0.0039
    CHARGE:  cpu time    0.1544: real time    0.1547
    MIXING:  cpu time    0.0023: real time    0.0023
    --------------------------------------------
      LOOP:  cpu time    3.7296: real time    3.7385

 eigenvalue-minimisations  : 10752
 total energy-change (2. order) :-0.1860165E-04  (-0.6948310E-04)
 number of electron      92.0000129 magnetization       0.0000000
 augmentation part       23.2930420 magnetization       0.0000000

 Broyden mixing:
  rms(total) = 0.93421E-02    rms(broyden)= 0.93416E-02
  rms(prec ) = 0.97299E-02
  weight for this iteration     100.00

 eigenvalues of (default mixing * dielectric matrix)
  average eigenvalue GAMMA=   1.3733
  4.8323  4.8323  2.5025  2.5025  1.0655  1.0655  0.9645  0.2391  0.2391  0.7653
  0.7653  0.6926  0.6926  0.4578  0.6492  0.5399  0.5399

 Free energy of the ion-electron system (eV)
  ---------------------------------------------------
  alpha Z        PSCENC =       906.21131108
  Ewald energy   TEWEN  =     -9706.50133840
  -Hartree energ DENC   =     -2753.84463005
  -exchange      EXHF   =         0.00000000
  -V(xc)+E(xc)   XCENC  =       464.47165393
  PAW double counting   =     10572.06183296   -11186.07760364
  entropy T*S    EENTRO =         0.01454842
  eigenvalues    EBANDS =      -588.33928760
  atomic energy  EATOM  =     12208.65233032
  Solvation  Ediel_sol  =         0.00000000
  ---------------------------------------------------
  free energy    TOTEN  =       -83.35118299 eV

  energy without entropy =      -83.36573140  energy(sigma->0) =      -83.35603246


--------------------------------------------------------------------------------------------------------




--------------------------------------- Iteration      1(  23)  ---------------------------------------


    POTLOK:  cpu time    0.0277: real time    0.0278
    SETDIJ:  cpu time    0.0092: real time    0.0092
     EDDAV:  cpu time    3.3819: real time    3.3899
       DOS:  cpu time    0.0037: real time    0.0037
    CHARGE:  cpu time    0.1563: real time    0.1566
    MIXING:  cpu time    0.0027: real time    0.0027
    --------------------------------------------
      LOOP:  cpu time    3.5814: real time    3.5899

 eigenvalue-minimisations  : 10328
 total energy-change (2. order) :-0.1690038E-05  (-0.2087478E-04)
 number of electron      92.0000129 magnetization       0.0000000
 augmentation part       23.2876571 magnetization       0.0000000

 Broyden mixing:
  rms(total) = 0.34812E-02    rms(broyden)= 0.34800E-02
  rms(prec ) = 0.35964E-02
  weight for this iteration     100.00

 eigenvalues of (default mixing * dielectric matrix)
  average eigenvalue GAMMA=   1.3751
  4.8672  4.8672  2.6431  2.4827  1.2752  1.1379  1.1379  0.2391  0.2391  0.7793
  0.7793  0.7607  0.7041  0.7041  0.4578  0.5373  0.5373  0.6031

 Free energy of the ion-electron system (eV)
  ---------------------------------------------------
  alpha Z        PSCENC =       906.21131108
  Ewald energy   TEWEN  =     -9706.50133840
  -Hartree energ DENC   =     -2753.93708696
  -exchange      EXHF   =         0.00000000
  -V(xc)+E(xc)   XCENC  =       464.44783896
  PAW double counting   =     10570.65038664   -11184.75866303
  entropy T*S    EENTRO =         0.01484163
  eigenvalues    EBANDS =      -588.13080491
  atomic energy  EATOM  =     12208.65233032
  Solvation  Ediel_sol  =         0.00000000
  ---------------------------------------------------
  free energy    TOTEN  =       -83.35118468 eV

  energy without entropy =      -83.36602630  energy(sigma->0) =      -83.35613188


--------------------------------------------------------------------------------------------------------




--------------------------------------- Iteration      1(  24)  ---------------------------------------


    POTLOK:  cpu time    0.0297: real time    0.0298
    SETDIJ:  cpu time    0.0098: real time    0.0098
     EDDAV:  cpu time    3.6694: real time    3.6781
       DOS:  cpu time    0.0040: real time    0.0040
    CHARGE:  cpu time    0.1555: real time    0.1559
    MIXING:  cpu time    0.0026: real time    0.0026
    --------------------------------------------
      LOOP:  cpu time    3.8710: real time    3.8802

 eigenvalue-minimisations  : 11024
 total energy-change (2. order) :-0.4467678E-05  (-0.6628596E-05)
 number of electron      92.0000129 magnetization       0.0000000
 augmentation part       23.2854080 magnetization       0.0000000

 Broyden mixing:
  rms(total) = 0.21215E-02    rms(broyden)= 0.21198E-02
  rms(prec ) = 0.24110E-02
  weight for this iteration     100.00

 eigenvalues of (default mixing * dielectric matrix)
  average eigenvalue GAMMA=   1.3907
  4.8604  4.8604  2.9029  2.1521  2.1521  1.1371  1.1371  0.2391  0.2391  0.8427
  0.8427  0.7935  0.7935  0.4578  0.6714  0.6714  0.5391  0.5391  0.5922

 Free energy of the ion-electron system (eV)
  ---------------------------------------------------
  alpha Z        PSCENC =       906.21131108
  Ewald energy   TEWEN  =     -9706.50133840
  -Hartree energ DENC   =     -2753.94432931
  -exchange      EXHF   =         0.00000000
  -V(xc)+E(xc)   XCENC  =       464.43221065
  PAW double counting   =     10569.96341470   -11184.13444122
  entropy T*S    EENTRO =         0.01496994
  eigenvalues    EBANDS =      -588.04531690
  atomic energy  EATOM  =     12208.65233032
  Solvation  Ediel_sol  =         0.00000000
  ---------------------------------------------------
  free energy    TOTEN  =       -83.35118914 eV

  energy without entropy =      -83.36615908  energy(sigma->0) =      -83.35617912


--------------------------------------------------------------------------------------------------------




--------------------------------------- Iteration      1(  25)  ---------------------------------------


    POTLOK:  cpu time    0.0289: real time    0.0290
    SETDIJ:  cpu time    0.0092: real time    0.0092
     EDDAV:  cpu time    3.1667: real time    3.1742
       DOS:  cpu time    0.0040: real time    0.0040
    CHARGE:  cpu time    0.1578: real time    0.1582
    MIXING:  cpu time    0.0035: real time    0.0035
    --------------------------------------------
      LOOP:  cpu time    3.3701: real time    3.3781

 eigenvalue-minimisations  :  9304
 total energy-change (2. order) : 0.2090355E-05  (-0.1463565E-05)
 number of electron      92.0000129 magnetization       0.0000000
 augmentation part       23.2848914 magnetization       0.0000000

 Broyden mixing:
  rms(total) = 0.15475E-02    rms(broyden)= 0.15452E-02
  rms(prec ) = 0.17292E-02
  weight for this iteration     100.00

 eigenvalues of (default mixing * dielectric matrix)
  average eigenvalue GAMMA=   1.3897
  4.8783  4.8783  2.8013  2.8013  2.0564  1.2745  0.2391  0.2391  1.0035  1.0035
  0.7787  0.7787  0.7886  0.7886  0.4578  0.6734  0.6734  0.5386  0.5386  0.6018

 Free energy of the ion-electron system (eV)
  ---------------------------------------------------
  alpha Z        PSCENC =       906.21131108
  Ewald energy   TEWEN  =     -9706.50133840
  -Hartree energ DENC   =     -2753.96874440
  -exchange      EXHF   =         0.00000000
  -V(xc)+E(xc)   XCENC  =       464.43354627
  PAW double counting   =     10569.36094835   -11183.54996839
  entropy T*S    EENTRO =         0.01497158
  eigenvalues    EBANDS =      -588.00424346
  atomic energy  EATOM  =     12208.65233032
  Solvation  Ediel_sol  =         0.00000000
  ---------------------------------------------------
  free energy    TOTEN  =       -83.35118705 eV

  energy without entropy =      -83.36615863  energy(sigma->0) =      -83.35617758


--------------------------------------------------------------------------------------------------------




--------------------------------------- Iteration      1(  26)  ---------------------------------------


    POTLOK:  cpu time    0.0312: real time    0.0314
    SETDIJ:  cpu time    0.0092: real time    0.0092
     EDDAV:  cpu time    2.5235: real time    2.5295
       DOS:  cpu time    0.0039: real time    0.0039
    CHARGE:  cpu time    0.1561: real time    0.1564
    MIXING:  cpu time    0.0036: real time    0.0037
    --------------------------------------------
      LOOP:  cpu time    2.7276: real time    2.7341

 eigenvalue-minimisations  :  6352
 total energy-change (2. order) : 0.1176912E-05  (-0.3356205E-06)
 number of electron      92.0000129 magnetization       0.0000000
 augmentation part       23.2850099 magnetization       0.0000000

 Broyden mixing:
  rms(total) = 0.10907E-02    rms(broyden)= 0.10875E-02
  rms(prec ) = 0.12005E-02
  weight for this iteration     100.00
[...]
 -0.000   0.000   0.001   0.000   0.000   0.001  -0.000  -0.000
  0.000  -0.000  -0.000  -0.004  -0.000   0.000   0.000   0.000
 -0.000   0.000   0.000   0.000   0.001  -0.000  -0.000   0.001
 -0.000   0.000  -0.004  -0.000   0.000  -0.001   0.000  -0.000
  0.000  -0.000   0.000  -0.000  -0.000  -0.000   0.000   0.000
 pseudopotential strength for first ion, spin component:           2
-15.712   0.707   0.000   0.004   0.000  -0.000  -0.001  -0.000
  0.707  -3.391  -0.000  -0.003  -0.000   0.000   0.001   0.000
  0.000  -0.000 -17.550  -0.000  -0.000   7.763  -0.000   0.000
  0.004  -0.003  -0.000 -17.553  -0.000  -0.000   7.767  -0.000
  0.000  -0.000  -0.000  -0.000 -17.550   0.000  -0.000   7.763
 -0.000   0.000   7.763  -0.000   0.000   5.160   0.000  -0.000
 -0.001   0.001  -0.000   7.767  -0.000   0.000   5.156   0.000
 -0.000   0.000   0.000  -0.000   7.763  -0.000   0.000   5.160
 -0.000  -0.000   0.000   0.000   0.000  -0.000   0.000   0.000
 -0.000   0.000   0.001   0.000   0.000  -0.000   0.000   0.000
 -0.001  -0.000  -0.000   0.002  -0.000   0.000   0.000   0.000
 -0.000   0.000   0.000   0.000   0.001   0.000   0.000  -0.000
 -0.000  -0.000   0.000   0.000   0.000   0.000  -0.000  -0.000
  0.000   0.000  -0.000  -0.000  -0.001   0.000   0.000  -0.000
  0.000  -0.000  -0.002  -0.000  -0.000   0.000  -0.000   0.000
  0.001   0.001   0.000  -0.003   0.000  -0.000  -0.000  -0.000
  0.000  -0.000  -0.000  -0.000  -0.002   0.000  -0.000   0.000
  0.000   0.000  -0.001  -0.000  -0.000  -0.000   0.000   0.000
 -0.002   0.000  -0.000  -0.019  -0.000   0.000   0.010   0.000
 -0.000  -0.000   0.000  -0.000  -0.023  -0.000   0.000   0.013
 -0.000   0.000   0.008   0.000   0.000  -0.003  -0.000  -0.000
 -0.001   0.000  -0.000  -0.018  -0.000   0.000   0.010   0.000
 -0.000   0.000   0.000   0.000   0.008  -0.000  -0.000  -0.003
 -0.000  -0.000  -0.023  -0.000   0.000   0.013   0.000  -0.000
 -0.000   0.000   0.000  -0.000  -0.000  -0.000   0.000   0.000
 -0.001   0.000  -0.000  -0.018  -0.000   0.000   0.010   0.000
 -0.000  -0.000   0.000  -0.000  -0.023  -0.000   0.000   0.012
 -0.000   0.000   0.007   0.000   0.000  -0.003  -0.000  -0.000
 -0.001   0.000  -0.000  -0.018  -0.000   0.000   0.010   0.000
 -0.000   0.000   0.000   0.000   0.007  -0.000  -0.000  -0.003
 -0.000  -0.000  -0.023  -0.000   0.000   0.013   0.000  -0.000
 -0.000   0.000   0.000  -0.000  -0.000  -0.000   0.000   0.000
 total augmentation occupancy for first ion, spin component:           1
  1.992  -0.041   0.000   0.000   0.000  -0.000   0.000  -0.000   0.000  -0.000   0.000  -0.000   0.000  -0.000   0.000  -0.000
 -0.041   0.606   0.000   0.001   0.000   0.000  -0.000   0.000   0.000  -0.000   0.000  -0.000   0.000   0.000  -0.000  -0.000
  0.000   0.000   2.012  -0.000  -0.000  -0.021  -0.000  -0.000   0.000   0.001  -0.000   0.000   0.000   0.000   0.000  -0.000
  0.000   0.001  -0.000   2.012   0.000  -0.000  -0.021  -0.000   0.000   0.000   0.001   0.000   0.000   0.000   0.000   0.000
  0.000   0.000  -0.000   0.000   2.012  -0.000  -0.000  -0.021   0.000   0.000  -0.000   0.001   0.000  -0.000   0.000  -0.000
 -0.000   0.000  -0.021  -0.000  -0.000   0.020  -0.000   0.000  -0.000  -0.000  -0.000  -0.000   0.000  -0.000   0.000  -0.000
  0.000  -0.000  -0.000  -0.021  -0.000  -0.000   0.020  -0.000  -0.000  -0.000   0.000  -0.000  -0.000  -0.000  -0.000   0.000
 -0.000   0.000  -0.000  -0.000  -0.021   0.000  -0.000   0.020   0.000  -0.000  -0.000  -0.000  -0.000   0.000  -0.000  -0.000
  0.000   0.000   0.000   0.000   0.000  -0.000  -0.000   0.000   0.234   0.000   0.000  -0.078   0.000   0.064   0.000   0.000
 -0.000  -0.000   0.001   0.000   0.000  -0.000  -0.000  -0.000   0.000   0.290   0.000   0.000  -0.079   0.000   0.085   0.000
  0.000   0.000  -0.000   0.001  -0.000  -0.000   0.000  -0.000   0.000   0.000   0.178   0.000   0.000   0.000   0.000   0.042
 -0.000  -0.000   0.000   0.000   0.001  -0.000  -0.000  -0.000  -0.078   0.000   0.000   0.290   0.000  -0.030   0.000   0.000
  0.000   0.000   0.000   0.000   0.000   0.000  -0.000  -0.000   0.000  -0.079   0.000   0.000   0.234   0.000  -0.030   0.000
 -0.000   0.000   0.000   0.000  -0.000  -0.000  -0.000   0.000   0.064   0.000   0.000  -0.030   0.000   0.019   0.000   0.000
  0.000  -0.000   0.000   0.000   0.000   0.000  -0.000  -0.000   0.000   0.085   0.000   0.000  -0.030   0.000   0.026   0.000
 -0.000  -0.000  -0.000   0.000  -0.000  -0.000   0.000  -0.000   0.000   0.000   0.042   0.000   0.000   0.000   0.000   0.011
  0.000  -0.000   0.000   0.000   0.000  -0.000  -0.000   0.000  -0.030   0.000   0.000   0.085   0.000  -0.011   0.000   0.000
 -0.000   0.000  -0.000   0.000   0.000   0.000  -0.000  -0.000   0.000  -0.030   0.000   0.000   0.064   0.000  -0.011   0.000
 -0.000  -0.006  -0.000  -0.118  -0.000  -0.000   0.082  -0.000  -0.000  -0.000  -0.004  -0.000  -0.000  -0.000  -0.000  -0.000
  0.000  -0.000   0.000  -0.000  -0.144  -0.000  -0.000   0.099  -0.003  -0.000  -0.000  -0.012  -0.000  -0.001  -0.000  -0.000
 -0.000  -0.000   0.063   0.000   0.000  -0.044   0.000  -0.000  -0.000   0.001  -0.000  -0.000  -0.006  -0.000  -0.000  -0.000
 -0.000  -0.006  -0.000  -0.106  -0.000   0.000   0.074   0.000  -0.000  -0.000  -0.016  -0.000  -0.000  -0.000  -0.000  -0.003
 -0.000  -0.000   0.000   0.000   0.063  -0.000   0.000  -0.044  -0.006  -0.000  -0.000   0.001  -0.000  -0.001  -0.000  -0.000
  0.000  -0.000  -0.144  -0.000   0.000   0.099  -0.000   0.000  -0.000  -0.012  -0.000  -0.000  -0.003  -0.000  -0.002  -0.000
 -0.000  -0.000   0.000  -0.000  -0.000   0.000   0.000  -0.000  -0.000  -0.000  -0.000   0.000   0.000   0.000   0.000  -0.000
  0.000   0.004   0.000   0.120   0.000   0.000  -0.076   0.000   0.000   0.000   0.003   0.000   0.000   0.000   0.000   0.000
 -0.000   0.000  -0.000   0.000   0.147   0.000   0.000  -0.092   0.002   0.000   0.000   0.006   0.000   0.001   0.000   0.000
  0.000   0.000  -0.064  -0.000  -0.000   0.041  -0.000   0.000  -0.000   0.000  -0.000  -0.000   0.003  -0.000   0.000   0.000
  0.000   0.003   0.000   0.108   0.000  -0.000  -0.068  -0.000  -0.000  -0.000   0.008  -0.000  -0.000  -0.000  -0.000   0.001
  0.000   0.000  -0.000  -0.000  -0.064   0.000  -0.000   0.041   0.003  -0.000  -0.000   0.000  -0.000   0.000  -0.000   0.000
 -0.000   0.000   0.147   0.000  -0.000  -0.092   0.000  -0.000   0.000   0.006   0.000   0.000   0.002   0.000   0.001   0.000
  0.000   0.000  -0.000   0.000   0.000  -0.000  -0.000   0.000  -0.000   0.000   0.000  -0.000   0.000  -0.000  -0.000   0.000
 total augmentation occupancy for first ion, spin component:           2
 -0.042  -0.158  -0.000  -0.000  -0.000  -0.000   0.000  -0.000   0.000  -0.000   0.000  -0.000   0.000   0.000  -0.000   0.000
 -0.158   0.135  -0.000  -0.001  -0.000  -0.000   0.001  -0.000   0.000   0.000  -0.002   0.000   0.000   0.000   0.000  -0.001
 -0.000  -0.000  -0.007   0.000  -0.000  -0.044   0.000   0.000   0.000  -0.001   0.000   0.000  -0.002   0.000  -0.000   0.000
 -0.000  -0.001   0.000  -0.008   0.000   0.000  -0.044  -0.000   0.000  -0.000  -0.003  -0.000   0.000   0.000   0.000  -0.000
 -0.000  -0.000  -0.000   0.000  -0.007   0.000  -0.000  -0.044  -0.002   0.000   0.000  -0.001   0.000  -0.000   0.000   0.000
 -0.000  -0.000  -0.044   0.000   0.000   0.004  -0.000  -0.000  -0.000   0.001  -0.000  -0.000   0.001  -0.000   0.000  -0.000
  0.000   0.001   0.000  -0.044  -0.000  -0.000   0.003  -0.000  -0.000  -0.000   0.003  -0.000  -0.000  -0.000  -0.000   0.001
 -0.000  -0.000   0.000  -0.000  -0.044  -0.000  -0.000   0.004   0.001  -0.000  -0.000   0.001  -0.000   0.000  -0.000  -0.000
  0.000   0.000   0.000   0.000  -0.002  -0.000  -0.000   0.001   0.060   0.000   0.000   0.009   0.000   0.014   0.000   0.000
 -0.000   0.000  -0.001  -0.000   0.000   0.001  -0.000  -0.000   0.000   0.053   0.000   0.000   0.009   0.000   0.013   0.000
  0.000  -0.002   0.000  -0.003   0.000  -0.000   0.003  -0.000   0.000   0.000   0.061   0.000   0.000   0.000   0.000   0.013
 -0.000   0.000   0.000  -0.000  -0.001  -0.000  -0.000   0.001   0.009   0.000   0.000   0.053   0.000   0.000   0.000   0.000
  0.000   0.000  -0.002   0.000   0.000   0.001  -0.000  -0.000   0.000   0.009   0.000   0.000   0.060   0.000   0.000   0.000
  0.000   0.000   0.000   0.000  -0.000  -0.000  -0.000   0.000   0.014   0.000   0.000   0.000   0.000   0.003   0.000   0.000
 -0.000   0.000  -0.000   0.000   0.000   0.000  -0.000  -0.000   0.000   0.013   0.000   0.000   0.000   0.000   0.004   0.000
  0.000  -0.001   0.000  -0.000   0.000  -0.000   0.001  -0.000   0.000   0.000   0.013   0.000   0.000   0.000   0.000   0.003
 -0.000   0.000   0.000   0.000  -0.000  -0.000  -0.000   0.000   0.000   0.000   0.000   0.013   0.000  -0.000   0.000   0.000
  0.000   0.000  -0.000   0.000   0.000   0.000  -0.000  -0.000   0.000   0.000   0.000   0.000   0.014   0.000  -0.000   0.000
  0.000  -0.015   0.000  -0.014   0.000  -0.000   0.023  -0.000  -0.000  -0.000  -0.011  -0.000  -0.000  -0.000  -0.000  -0.001
  0.000  -0.000   0.000   0.000  -0.016  -0.000  -0.000   0.026  -0.017  -0.000  -0.000  -0.028  -0.000  -0.003  -0.000  -0.000
  0.000   0.000   0.006   0.000   0.000  -0.010   0.000   0.000  -0.000  -0.005  -0.000  -0.000  -0.016  -0.000  -0.001  -0.000
  0.000  -0.013  -0.000  -0.014  -0.000   0.000   0.022   0.000  -0.000  -0.000  -0.045  -0.000  -0.000  -0.000  -0.000  -0.008
  0.000   0.000   0.000   0.000   0.006   0.000   0.000  -0.010  -0.016  -0.000  -0.000  -0.005  -0.000  -0.003  -0.000  -0.000
  0.000  -0.000  -0.016   0.000   0.000   0.026  -0.000   0.000  -0.000  -0.028  -0.000  -0.000  -0.017  -0.000  -0.005  -0.000
  0.000  -0.000   0.000  -0.000  -0.000   0.000   0.000  -0.000  -0.000  -0.000  -0.000   0.000   0.000   0.000   0.000  -0.000
 -0.001   0.013  -0.000   0.000  -0.000   0.000  -0.009   0.000   0.000   0.000   0.013   0.000   0.000   0.000   0.000   0.002
 -0.000  -0.000  -0.000  -0.000  -0.001   0.000   0.000  -0.010   0.019   0.000   0.000   0.024   0.000   0.003   0.000   0.000
 -0.000  -0.000   0.001  -0.000  -0.000   0.003   0.000   0.000   0.000   0.008   0.000   0.000   0.014   0.000   0.002   0.000
 -0.000   0.011   0.000   0.001   0.000  -0.000  -0.010  -0.000   0.000   0.000   0.043   0.000   0.000   0.000   0.000   0.008
 -0.000  -0.000  -0.000  -0.000   0.001   0.000   0.000   0.003   0.014   0.000   0.000   0.008   0.000   0.002   0.000   0.000
 -0.000  -0.000  -0.001  -0.000  -0.000  -0.010   0.000   0.000   0.000   0.024   0.000   0.000   0.019   0.000   0.004   0.000
 -0.000   0.000  -0.000   0.000   0.000   0.000  -0.000  -0.000   0.000   0.000   0.000  -0.000  -0.000  -0.000  -0.000   0.000


------------------------ aborting loop because EDIFF is reached ----------------------------------------


 


 total charge     
 
# of ion       s       p       d       f       tot
--------------------------------------------------
    1        2.083   5.888   0.628   6.708  15.307
    2        2.083   5.888   0.628   6.708  15.307
    3        2.083   5.888   0.628   6.708  15.307
    4        2.083   5.888   0.628   6.708  15.307
    5        1.558   3.406   0.000   0.000   4.963
    6        1.557   3.407   0.000   0.000   4.965
    7        1.558   3.406   0.000   0.000   4.963
    8        1.557   3.407   0.000   0.000   4.965
--------------------------------------------------
tot         14.561  37.177   2.511  26.833  81.083

 


 magnetization (x)
 
# of ion       s       p       d       f       tot
--------------------------------------------------
    1       -0.005  -0.009   0.158   6.606   6.751
    2       -0.005  -0.009   0.158   6.606   6.751
    3        0.005   0.009  -0.158  -6.606  -6.751
    4        0.005   0.009  -0.158  -6.606  -6.751
    5       -0.005  -0.097   0.000   0.000  -0.102
    6        0.000   0.000   0.000   0.000   0.000
    7        0.005   0.097   0.000   0.000   0.102
    8        0.000   0.000   0.000   0.000   0.000
--------------------------------------------------
tot          0.000   0.000  -0.000  -0.000   0.000

 
    CHARGE:  cpu time    0.1567: real time    0.1570
    FORLOC:  cpu time    0.0018: real time    0.0018
    FORNL :  cpu time    1.3615: real time    1.3647
    STRESS:  cpu time    1.2489: real time    1.2519
    FORCOR:  cpu time    0.0308: real time    0.0308
    FORHAR:  cpu time    0.0047: real time    0.0047
    MIXING:  cpu time    0.0032: real time    0.0032
    OFIELD:  cpu time    0.0001: real time    0.0001

  FORCE on cell =-STRESS in cart. coord.  units (eV):
  Direction    XX          YY          ZZ          XY          YZ          ZX
  --------------------------------------------------------------------------------------
  Alpha Z   906.21131   906.21131   906.21131
  Ewald   -3235.50495 -3235.50223 -3235.50576     0.00702     0.00503    -0.00490
  Hartree   918.04771   918.06574   917.81238    -0.01470     0.01737     0.02645
  E(xc)    -488.25195  -488.25156  -488.27244    -0.00036     0.00030     0.00054
  Local     844.83946   844.81199   845.23278     0.02033    -0.03114    -0.04087
  n-local  -452.88519  -452.87624  -453.14046     0.00466     0.00583    -0.00525
  augment   192.79816   192.79915   192.56694    -0.00310    -0.00030     0.00405
  Kinetic  1313.84017  1313.81787  1314.72322    -0.02482    -0.01741     0.03388
  Fock        0.00000     0.00000     0.00000     0.00000     0.00000     0.00000
  -------------------------------------------------------------------------------------
  Total      -0.91704    -0.91220    -0.37204    -0.00418     0.00096     0.00166
  in kB     -11.20273   -11.14364    -4.54493    -0.05112     0.01168     0.02022
  external pressure =       -8.96 kB  Pullay stress =        0.00 kB


 VOLUME and BASIS-vectors are now :
 -----------------------------------------------------------------------------
  energy-cutoff  :      500.00
  volume of cell :      131.15
      direct lattice vectors                 reciprocal lattice vectors
     1.796261100 -3.111279100  0.000000000     0.278346409 -0.160711128  0.056814756
     1.796384500  3.111279100  0.000000000     0.278346409  0.160700088  0.028403078
    -1.796103700  1.037187700 11.733336000     0.000000000  0.000000000  0.085227253

  length of vectors
     3.592577289  3.592638990 11.915239004     0.326393484  0.322657677  0.085227253


 FORCES acting on ions
    electron-ion (+dipol)            ewald-force                    non-local-force                 convergence-correction
 -----------------------------------------------------------------------------------------------
   -.370E-02 -.213E-02 -.347E+00   0.283E-04 -.187E-04 0.198E-04   0.366E-02 0.211E-02 0.422E+00   0.136E-03 0.783E-04 -.210E-02
   0.369E-02 0.214E-02 0.347E+00   0.283E-04 -.187E-04 0.198E-04   -.366E-02 -.211E-02 -.422E+00   -.136E-03 -.783E-04 0.210E-02
   -.370E-02 -.213E-02 -.347E+00   0.283E-04 -.187E-04 0.198E-04   0.366E-02 0.211E-02 0.422E+00   0.136E-03 0.783E-04 -.210E-02
   0.369E-02 0.214E-02 0.347E+00   0.283E-04 -.187E-04 0.198E-04   -.366E-02 -.211E-02 -.422E+00   -.136E-03 -.783E-04 0.210E-02
   -.168E-03 0.111E-03 -.118E-03   -.283E-04 0.187E-04 -.198E-04   0.191E-20 0.143E-20 -.847E-21   0.612E-08 -.405E-08 0.434E-08
   -.168E-03 0.111E-03 -.118E-03   -.283E-04 0.187E-04 -.198E-04   0.106E-21 -.106E-20 -.212E-20   0.629E-08 -.415E-08 0.426E-08
   -.168E-03 0.111E-03 -.118E-03   -.283E-04 0.187E-04 -.198E-04   0.180E-20 -.222E-20 -.847E-21   0.612E-08 -.405E-08 0.434E-08
   -.168E-03 0.111E-03 -.118E-03   -.283E-04 0.187E-04 -.198E-04   -.191E-20 0.238E-21 -.127E-20   0.629E-08 -.415E-08 0.426E-08
 -----------------------------------------------------------------------------------------------
   -.686E-03 0.452E-03 -.480E-03   -.252E-13 0.689E-14 -.716E-13   0.868E-17 -.161E-20 0.555E-16   0.152E-07 -.100E-07 0.105E-07
 
 
 POSITION                                       TOTAL-FORCE (eV/Angst)
 -----------------------------------------------------------------------------------
      0.00000      0.00000      0.00000         0.000099      0.000057      0.072705
      1.79639      1.03712      2.93333        -0.000099     -0.000057     -0.072705
      0.00014      2.07423      5.86667         0.000099      0.000057      0.072705
      0.00015      0.00007      8.80000        -0.000099     -0.000057     -0.072705
      1.79633     -1.03708      1.46667         0.000000      0.000000      0.000000
      0.00007      0.00004      4.40000         0.000000      0.000000     -0.000000
      1.79647      1.03715      7.33334         0.000000      0.000000      0.000000
      0.00022      2.07427     10.26667         0.000000      0.000000     -0.000000
 -----------------------------------------------------------------------------------
    total drift:                               -0.000686      0.000452     -0.000480


--------------------------------------------------------------------------------------------------------



  FREE ENERGIE OF THE ION-ELECTRON SYSTEM (eV)
  ---------------------------------------------------
  free  energy   TOTEN  =       -83.35118595 eV

  energy  without entropy=      -83.36610510  energy(sigma->0) =      -83.35615900
 


--------------------------------------------------------------------------------------------------------


    POTLOK:  cpu time    0.0396: real time    0.0397


--------------------------------------------------------------------------------------------------------


     LOOP+:  cpu time   98.4682: real time   98.7180
    4ORBIT:  cpu time    0.0000: real time    0.0000
 


 total charge     
 
# of ion       s       p       d       f       tot
--------------------------------------------------
    1        2.083   5.888   0.628   6.708  15.307
    2        2.083   5.888   0.628   6.708  15.307
    3        2.083   5.888   0.628   6.708  15.307
    4        2.083   5.888   0.628   6.708  15.307
    5        1.558   3.406   0.000   0.000   4.963
    6        1.557   3.407   0.000   0.000   4.965
    7        1.558   3.406   0.000   0.000   4.963
    8        1.557   3.407   0.000   0.000   4.965
--------------------------------------------------
tot         14.561  37.177   2.511  26.833  81.083

 


 magnetization (x)
 
# of ion       s       p       d       f       tot
--------------------------------------------------
    1       -0.005  -0.009   0.158   6.606   6.751
    2       -0.005  -0.009   0.158   6.606   6.751
    3        0.005   0.009  -0.158  -6.606  -6.751
    4        0.005   0.009  -0.158  -6.606  -6.751
    5       -0.005  -0.097   0.000   0.000  -0.102
    6        0.000   0.000   0.000   0.000   0.000
    7        0.005   0.097   0.000   0.000   0.102
    8        0.000   0.000   0.000   0.000   0.000
--------------------------------------------------
tot          0.000   0.000  -0.000  -0.000   0.000

 

 total amount of memory used by VASP MPI-rank0    66130. kBytes
=======================================================================

   base      :      30000. kBytes
   nonl-proj :      11343. kBytes
   fftplans  :       1170. kBytes
   grid      :       2828. kBytes
   one-center:        196. kBytes
   wavefun   :      20593. kBytes
 
  
  
 General timing and accounting informations for this job:
 ========================================================
  
                  Total CPU time used (sec):      100.531
                            User time (sec):      100.137
                          System time (sec):        0.394
                         Elapsed time (sec):      101.998
  
                   Maximum memory used (kb):       91520.
                   Average memory used (kb):           0.
  
                          Minor page faults:        29827
                          Major page faults:            0
                 Voluntary context switches:         1451
