 vasp.5.4.4.18Apr17-6-g9f103f2a35 (build Apr 28 2018 00:24:27) complex          
  
 executed on             LinuxIFC date 2021.03.23  16:56:30
 running on    8 total cores
 distrk:  each k-point on    8 cores,    1 groups
 distr:  one band on NCORES_PER_BAND=   4 cores,    2 groups


--------------------------------------------------------------------------------------------------------


 INCAR:
 POTCAR:    PAW_PBE Eu 23Dec2003                  
 POTCAR:    PAW_PBE O 08Apr2002                   
 POTCAR:    PAW_PBE Eu 23Dec2003                  
   SHA256 =  ed303d27e7c5191953f9b15539336e6f36d9037c1d2e92e80c13d733697cb93d Eu
   COPYR  = (c) Copyright 23Dec2003 Georg Kresse                                
   COPYR  = This file is part of the software VASP. Any use, copying, and all ot
   COPYR  = If you do not have a valid VASP license, you may not use, copy or di
   VRHFIN =Eu : [core=Kr4d]                                                     
   LEXCH  = PE                                                                  
   EATOM  =  2619.8085 eV,  192.5505 Ry                                         
                                                                                
   TITEL  = PAW_PBE Eu 23Dec2003                                                
   LULTRA =        F    use ultrasoft PP ?                                      
   IUNSCR =        1    unscreen: 0-lin 1-nonlin 2-no                           
   RPACOR =    2.300    partial core radius                                     
   POMASS =  151.965; ZVAL   =   17.000    mass and valenz                      
   RCORE  =    2.800    outmost cutoff radius                                   
   RWIGS  =    2.800; RWIGS  =    1.482    wigner-seitz radius (au A)           
   ENMAX  =  249.668; ENMIN  =  187.251 eV                                      
   RCLOC  =    2.308    cutoff for local pot                                    
   LCOR   =        T    correct aug charges                                     
   LPAW   =        T    paw PP                                                  
   EAUG   =  549.628                                                            
   DEXC   =    0.000                                                            
   RMAX   =    2.870    core radius for proj-oper                               
   RAUG   =    1.300    factor for augmentation sphere                          
   RDEP   =    2.887    radius for radial grids                                 
   RDEPT  =    2.221    core radius for aug-charge                              
                                                                                
   Atomic configuration                                                         
   14 entries                                                                   
     n  l   j            E        occ.                                          
     1  0  0.50    -48354.7667   2.0000                                         
     2  0  0.50     -7939.6472   2.0000                                         
     2  1  1.50     -7072.6637   6.0000                                         
     3  0  0.50     -1747.1875   2.0000                                         
     3  1  1.50     -1477.5221   6.0000                                         
     3  2  2.50     -1117.4686  10.0000                                         
     4  0  0.50      -346.8682   2.0000                                         
     4  1  1.50      -258.1962   6.0000                                         
     4  2  2.50      -134.7724  10.0000                                         
     5  0  0.50       -44.6510   2.0000                                         
     6  0  0.50        -3.6227   2.0000                                         
     5  1  1.50       -23.7639   6.0000                                         
     5  2  2.50        -1.3130   0.0000                                         
     4  3  2.50        -2.7310   7.0000                                         
   Description                                                                  
     l       E           TYP  RCUT    TYP  RCUT                                 
     0    -44.6510453     23  2.400                                             
     0     -3.6226685     23  2.400                                             
     1    -23.7638687     23  2.400                                             
     1     27.2116520     23  2.400                                             
     2     -1.3129622     23  2.500                                             
     2     13.6058260     23  2.500                                             
     3     -2.7309948     23  2.800                                             
     3     -3.4014565     23  2.800                                             
  local pseudopotential read in
  partial core-charges read in
  partial kinetic energy density read in
  atomic valenz-charges read in
  non local Contribution for L=           0  read in
    real space projection operators read in
  non local Contribution for L=           0  read in
    real space projection operators read in
  non local Contribution for L=           1  read in
    real space projection operators read in
  non local Contribution for L=           1  read in
    real space projection operators read in
  non local Contribution for L=           2  read in
    real space projection operators read in
  non local Contribution for L=           2  read in
    real space projection operators read in
  non local Contribution for L=           3  read in
    real space projection operators read in
  non local Contribution for L=           3  read in
    real space projection operators read in
    PAW grid and wavefunctions read in
 
   number of l-projection  operators is LMAX  =           8
   number of lm-projection operators is LMMAX =          32
 
 POTCAR:    PAW_PBE O 08Apr2002                   
   SHA256 =  818f92134a0a090dccd8ba1447fa70422a3b330e708bb4f08108d8ae51209ddf O/
   COPYR  = (c) Copyright 08Apr2002 Georg Kresse                                
   COPYR  = This file is part of the software VASP. Any use, copying, and all ot
   COPYR  = If you do not have a valid VASP license, you may not use, copy or di
   VRHFIN =O: s2p4                                                              
   LEXCH  = PE                                                                  
   EATOM  =   432.3788 eV,   31.7789 Ry                                         
                                                                                
   TITEL  = PAW_PBE O 08Apr2002                                                 
   LULTRA =        F    use ultrasoft PP ?                                      
   IUNSCR =        1    unscreen: 0-lin 1-nonlin 2-no                           
   RPACOR =    1.200    partial core radius                                     
   POMASS =   16.000; ZVAL   =    6.000    mass and valenz                      
   RCORE  =    1.520    outmost cutoff radius                                   
   RWIGS  =    1.550; RWIGS  =    0.820    wigner-seitz radius (au A)           
   ENMAX  =  400.000; ENMIN  =  300.000 eV                                      
   ICORE  =        2    local potential                                         
   LCOR   =        T    correct aug charges                                     
   LPAW   =        T    paw PP                                                  
   EAUG   =  605.392                                                            
   DEXC   =    0.000                                                            
   RMAX   =    1.553    core radius for proj-oper                               
   RAUG   =    1.300    factor for augmentation sphere                          
   RDEP   =    1.550    radius for radial grids                                 
   RDEPT  =    1.329    core radius for aug-charge                              
                                                                                
   Atomic configuration                                                         
    4 entries                                                                   
     n  l   j            E        occ.                                          
     1  0  0.50      -514.6923   2.0000                                         
     2  0  0.50       -23.9615   2.0000                                         
     2  1  0.50        -9.0305   4.0000                                         
     3  2  1.50        -9.5241   0.0000                                         
   Description                                                                  
     l       E           TYP  RCUT    TYP  RCUT                                 
     0    -23.9615318     23  1.200                                             
     0     -9.5240782     23  1.200                                             
     1     -9.0304911     23  1.520                                             
     1      8.1634956     23  1.520                                             
     2     -9.5240782      7  1.500                                             
  local pseudopotential read in
  partial core-charges read in
  partial kinetic energy density read in
  kinetic energy density of atom read in
  atomic valenz-charges read in
  non local Contribution for L=           0  read in
    real space projection operators read in
  non local Contribution for L=           0  read in
    real space projection operators read in
  non local Contribution for L=           1  read in
    real space projection operators read in
  non local Contribution for L=           1  read in
    real space projection operators read in
    PAW grid and wavefunctions read in
 
   number of l-projection  operators is LMAX  =           4
   number of lm-projection operators is LMMAX =           8
 
  PAW_PBE Eu 23Dec2003                  :
 energy of atom  1       EATOM=-2619.8085
 kinetic energy error for atom=    0.0019 (will be added to EATOM!!)
  PAW_PBE O 08Apr2002                   :
 energy of atom  2       EATOM= -432.3788
 kinetic energy error for atom=    0.0224 (will be added to EATOM!!)
 
 
 POSCAR: Eu1 O1 str #: 8                         
  positions in direct lattice
  No initial velocities read in
 exchange correlation table for  LEXCH =        8
   RHO(1)=    0.500       N(1)  =     2000
   RHO(2)=  100.500       N(2)  =     4000
 


--------------------------------------------------------------------------------------------------------


 ion  position               nearest neighbor table
   1  0.000  0.000  0.000-   5 2.54   8 2.54   5 2.54   8 2.54   8 2.54   5 2.54
   2  0.500  0.750  0.250-   6 2.54   5 2.54   6 2.54   5 2.54   5 2.54   6 2.54
   3  0.000  0.500  0.500-   7 2.54   6 2.54   7 2.54   6 2.54   6 2.54   7 2.54
   4  0.500  0.250  0.750-   8 2.54   7 2.54   8 2.54   7 2.54   7 2.54   8 2.54
   5  0.750  0.375  0.125-   1 2.54   2 2.54   1 2.54   2 2.54   2 2.54   1 2.54
   6  0.250  0.125  0.375-   2 2.54   3 2.54   2 2.54   3 2.54   3 2.54   2 2.54
   7  0.750  0.875  0.625-   3 2.54   4 2.54   3 2.54   4 2.54   4 2.54   3 2.54
   8  0.250  0.625  0.875-   4 2.54   1 2.54   4 2.54   1 2.54   1 2.54   4 2.54
 
  LATTYP: Found a base centered monoclinic cell.
 ALAT       =     6.2226765187
 B/A-ratio  =     0.5773363404
 C/A-ratio  =     1.9148199380
 COS(beta)  =    -0.1507759885
  
  Lattice vectors:
  
 A1 = (   1.7963845000,   3.1112791000,   0.0000000000)
 A2 = (   3.5926456000,   0.0000000000,   0.0000000000)
 A3 = (  -1.7965419000,  -1.0371877000, -11.7333360000)


Analysis of symmetry for initial positions (statically):
=====================================================================
 Subroutine PRICEL returns following result:
 
  LATTYP: Found a trigonal (rhomboedric) cell.
 ALAT       =     3.5926456000
 COS(alpha) =     0.5000198342
  
  Lattice vectors:
  
 A1 = (  -3.5926456000,   0.0000000000,  -0.0000000000)
 A2 = (  -1.7963930000,  -1.0371167000,  -2.9333340000)
 A3 = (  -1.7963845000,  -3.1112791000,  -0.0000000000)
 
   4 primitive cells build up your supercell.
 

 Routine SETGRP: Setting up the symmetry group for a 
 base centered monoclinic supercell.


 Subroutine GETGRP returns: Found  4 space group operations
 (whereof  4 operations were pure point group operations)
 out of a pool of  4 trial point group operations.


The static configuration has the point symmetry C_2h.


Analysis of symmetry for dynamics (positions and initial velocities):
=====================================================================
 Subroutine PRICEL returns following result:
 
  LATTYP: Found a trigonal (rhomboedric) cell.
 ALAT       =     3.5926456000
 COS(alpha) =     0.5000198342
  
  Lattice vectors:
  
 A1 = (  -3.5926456000,   0.0000000000,  -0.0000000000)
 A2 = (  -1.7963930000,  -1.0371167000,  -2.9333340000)
 A3 = (  -1.7963845000,  -3.1112791000,  -0.0000000000)
 
   4 primitive cells build up your supercell.
 

 Routine SETGRP: Setting up the symmetry group for a 
 base centered monoclinic supercell.


 Subroutine GETGRP returns: Found  4 space group operations
 (whereof  4 operations were pure point group operations)
 out of a pool of  4 trial point group operations.


The dynamic configuration has the point symmetry C_2h.


Analysis of structural, dynamic, and magnetic symmetry:
=====================================================================
 Subroutine PRICEL returns following result:
 
  LATTYP: Found a base centered monoclinic cell.
 ALAT       =    11.9153050659
 B/A-ratio  =     0.3015094678
 C/A-ratio  =     0.5222291463
 COS(beta)  =    -0.8333278478
  
  Lattice vectors:
  
 A1 = (   0.0001404000,   2.0742334000,   5.8666680000)
 A2 = (   1.7964015000,  -1.0370457000,   5.8666680000)
 A3 = (   1.7962441000,   1.0370457000,  -5.8666680000)
 
   2 primitive cells build up your supercell.
 

 Routine SETGRP: Setting up the symmetry group for a 
 base centered monoclinic supercell.


 Subroutine GETGRP returns: Found  4 space group operations
 (whereof  2 operations were pure point group operations)
 out of a pool of  4 trial point group operations.


The magnetic configuration has the point symmetry C_1h.
 The point group associated with its full space group is C_2h.


 Subroutine INISYM returns: Found  4 space group operations
 (whereof  2 operations are pure point group operations),
 and found     2 'primitive' translations

 
 
 KPOINTS: pymatgen v2020.8.13 with grid density = 

Automatic generation of k-mesh.
Space group operators:
 irot       det(A)        alpha          n_x          n_y          n_z        tau_x        tau_y        tau_z
    1     1.000000     0.000000     1.000000     0.000000     0.000000     0.000000     0.000000     0.000000
    2    -1.000000   179.999999    -0.499990     0.866031     0.000001     0.000000     0.000000     0.000000
    3    -1.000000     0.000000     1.000000     0.000000     0.000000     0.500000     0.750000     0.250000
    4     1.000000   179.999999    -0.499990     0.866031     0.000001     0.500000     0.750000     0.250000
 
 Subroutine IBZKPT returns following result:
 ===========================================
 
 Found     32 irreducible k-points:
 
 Following reciprocal coordinates:
            Coordinates               Weight
  0.125000  0.125000  0.125000      8.000000
  0.375000  0.125000  0.125000      8.000000
 -0.375000  0.125000  0.125000      8.000000
 -0.125000  0.125000  0.125000      8.000000
  0.125000  0.375000  0.125000      8.000000
  0.375000  0.375000  0.125000      8.000000
 -0.375000  0.375000  0.125000      8.000000
 -0.125000  0.375000  0.125000      8.000000
  0.125000 -0.375000  0.125000      8.000000
  0.375000 -0.375000  0.125000      8.000000
 -0.375000 -0.375000  0.125000      8.000000
 -0.125000 -0.375000  0.125000      8.000000
  0.125000 -0.125000  0.125000      8.000000
  0.375000 -0.125000  0.125000      8.000000
 -0.375000 -0.125000  0.125000      8.000000
 -0.125000 -0.125000  0.125000      8.000000
  0.125000  0.125000  0.375000      8.000000
  0.375000  0.125000  0.375000      8.000000
 -0.375000  0.125000  0.375000      8.000000
 -0.125000  0.125000  0.375000      8.000000
  0.125000  0.375000  0.375000      8.000000
  0.375000  0.375000  0.375000      8.000000
 -0.375000  0.375000  0.375000      8.000000
 -0.125000  0.375000  0.375000      8.000000
  0.125000 -0.375000  0.375000      8.000000
  0.375000 -0.375000  0.375000      8.000000
 -0.375000 -0.375000  0.375000      8.000000
 -0.125000 -0.375000  0.375000      8.000000
  0.125000 -0.125000  0.375000      8.000000
  0.375000 -0.125000  0.375000      8.000000
 -0.375000 -0.125000  0.375000      8.000000
 -0.125000 -0.125000  0.375000      8.000000
 
 Following cartesian coordinates:
            Coordinates               Weight
  0.069587 -0.000001  0.021306      8.000000
  0.139173 -0.040179  0.035509      8.000000
 -0.069587  0.080354 -0.007102      8.000000
  0.000000  0.040176  0.007102      8.000000
  0.139173  0.040174  0.028406      8.000000
  0.208760 -0.000004  0.042610      8.000000
  0.000000  0.120529 -0.000001      8.000000
  0.069587  0.080351  0.014203      8.000000
 -0.069587 -0.080351  0.007104      8.000000
  0.000000 -0.120529  0.021308      8.000000
 -0.208760  0.000004 -0.021303      8.000000
 -0.139173 -0.040174 -0.007100      8.000000
  0.000000 -0.040176  0.014205      8.000000
  0.069587 -0.080354  0.028409      8.000000
 -0.139173  0.040179 -0.014203      8.000000
 -0.069587  0.000001  0.000001      8.000000
  0.069587 -0.000001  0.042612      8.000000
  0.139173 -0.040179  0.056816      8.000000
 -0.069587  0.080354  0.014205      8.000000
  0.000000  0.040176  0.028409      8.000000
  0.139173  0.040174  0.049713      8.000000
  0.208760 -0.000004  0.063917      8.000000
  0.000000  0.120529  0.021306      8.000000
  0.069587  0.080351  0.035510      8.000000
 -0.069587 -0.080351  0.028411      8.000000
  0.000000 -0.120529  0.042615      8.000000
 -0.208760  0.000004  0.000004      8.000000
 -0.139173 -0.040174  0.014207      8.000000
  0.000000 -0.040176  0.035512      8.000000
  0.069587 -0.080354  0.049715      8.000000
 -0.139173  0.040179  0.007104      8.000000
 -0.069587  0.000001  0.021308      8.000000
 


--------------------------------------------------------------------------------------------------------




 Dimension of arrays:
   k-points           NKPTS =     32   k-points in BZ     NKDIM =     32   number of bands    NBANDS=     56
   number of dos      NEDOS =    301   number of ions     NIONS =      8
   non local maximal  LDIM  =      8   non local SUM 2l+1 LMDIM =     32
   total plane-waves  NPLWV =  28000
   max r-space proj   IRMAX =      1   max aug-charges    IRDMAX=  12403
   dimension x,y,z NGX =    20 NGY =   20 NGZ =   70
   dimension x,y,z NGXF=    40 NGYF=   40 NGZF=  140
   support grid    NGXF=    40 NGYF=   40 NGZF=  140
   ions per type =               4   4
   NGX,Y,Z   is equivalent  to a cutoff of   9.25,  9.25,  9.77 a.u.
   NGXF,Y,Z  is equivalent  to a cutoff of  18.51, 18.51, 19.53 a.u.

 SYSTEM =  "EuO"                                   
 POSCAR =  Eu1 O1 str #: 8                         

 Startparameter for this run:
   NWRITE =      2    write-flag & timer
   PREC   = normal    normal or accurate (medium, high low for compatibility)
   ISTART =      0    job   : 0-new  1-cont  2-samecut
   ICHARG =      2    charge: 1-file 2-atom 10-const
   ISPIN  =      2    spin polarized calculation?
   LNONCOLLINEAR =      F non collinear calculations
   LSORBIT =      F    spin-orbit coupling
   INIWAV =      1    electr: 0-lowe 1-rand  2-diag
   LASPH  =      F    aspherical Exc in radial PAW
   METAGGA=      F    non-selfconsistent MetaGGA calc.

 Electronic Relaxation 1
   ENCUT  =  500.0 eV  36.75 Ry    6.06 a.u.   6.55  6.55 21.72*2*pi/ulx,y,z
   ENINI  =  500.0     initial cutoff
   ENAUG  =  605.4 eV  augmentation charge cutoff
   NELM   =     60;   NELMIN=  2; NELMDL= -5     # of ELM steps 
   EDIFF  = 0.1E-05   stopping-criterion for ELM
   LREAL  =      F    real-space projection
   NLSPLINE    = F    spline interpolate recip. space projectors
   LCOMPAT=      F    compatible to vasp.4.4
   GGA_COMPAT  = T    GGA compatible to vasp.4.4-vasp.4.6
   LMAXPAW     = -100 max onsite density
   LMAXMIX     =    2 max onsite mixed and CHGCAR
   VOSKOWN=      0    Vosko Wilk Nusair interpolation
   ROPT   =    0.00000   0.00000
 Ionic relaxation
   EDIFFG = 0.1E-04   stopping-criterion for IOM
   NSW    =      0    number of steps for IOM
   NBLOCK =      1;   KBLOCK =      1    inner block; outer block 
   IBRION =     -1    ionic relax: 0-MD 1-quasi-New 2-CG
   NFREE  =      1    steps in history (QN), initial steepest desc. (CG)
   ISIF   =      2    stress and relaxation
   IWAVPR =     10    prediction:  0-non 1-charg 2-wave 3-comb
   ISYM   =      2    0-nonsym 1-usesym 2-fastsym
   LCORR  =      T    Harris-Foulkes like correction to forces

   POTIM  = 0.5000    time-step for ionic-motion
   TEIN   =    0.0    initial temperature
   TEBEG  =    0.0;   TEEND  =   0.0 temperature during run
   SMASS  =  -3.00    Nose mass-parameter (am)
   estimated Nose-frequenzy (Omega)   =  0.10E-29 period in steps =****** mass=  -0.295E-27a.u.
   SCALEE = 1.0000    scale energy and forces
   NPACO  =    256;   APACO  = 16.0  distance and # of slots for P.C.
   PSTRESS=    0.0 pullay stress

  Mass of Ions in am
   POMASS = 151.97 16.00
  Ionic Valenz
   ZVAL   =  17.00  6.00
  Atomic Wigner-Seitz radii
   RWIGS  =  -1.00 -1.00
  virtual crystal weights 
   VCA    =   1.00  1.00
   NELECT =      92.0000    total number of electrons
   NUPDOWN=      -1.0000    fix difference up-down

 DOS related values:
   EMIN   =  10.00;   EMAX   =-10.00  energy-range for DOS
   EFERMI =   0.00
   ISMEAR =     1;   SIGMA  =   0.10  broadening in eV -4-tet -1-fermi 0-gaus

 Electronic relaxation 2 (details)
   IALGO  =     38    algorithm
   LDIAG  =      T    sub-space diagonalisation (order eigenvalues)
   LSUBROT=      F    optimize rotation matrix (better conditioning)
   TURBO    =      0    0=normal 1=particle mesh
   IRESTART =      0    0=no restart 2=restart with 2 vectors
   NREBOOT  =      0    no. of reboots
   NMIN     =      0    reboot dimension
   EREF     =   0.00    reference energy to select bands
   IMIX   =      4    mixing-type and parameters
     AMIX     =   0.40;   BMIX     =  1.00
     AMIX_MAG =   1.60;   BMIX_MAG =  1.00
     AMIN     =   0.10
     WC   =   100.;   INIMIX=   1;  MIXPRE=   1;  MAXMIX= -45

 Intra band minimization:
   WEIMIN = 0.0000     energy-eigenvalue tresh-hold
   EBREAK =  0.45E-08  absolut break condition
   DEPER  =   0.30     relativ break condition  

   TIME   =   0.40     timestep for ELM

  volume/ion in A,a.u.               =      16.39       110.63
  Fermi-wavevector in a.u.,A,eV,Ry     =   1.454607  2.748810 28.788335  2.115883
  Thomas-Fermi vector in A             =   2.571738
 
 Write flags
   LWAVE        =      F    write WAVECAR
   LDOWNSAMPLE  =      F    k-point downsampling of WAVECAR
   LCHARG       =      F    write CHGCAR
   LVTOT        =      F    write LOCPOT, total local potential
   LVHAR        =      F    write LOCPOT, Hartree potential only
   LELF         =      F    write electronic localiz. function (ELF)
   LORBIT       =     11    0 simple, 1 ext, 2 COOP (PROOUT), +10 PAW based schemes


 Dipole corrections
   LMONO  =      F    monopole corrections only (constant potential shift)
   LDIPOL =      F    correct potential (dipole corrections)
   IDIPOL =      0    1-x, 2-y, 3-z, 4-all directions 
   EPSILON=  1.0000000 bulk dielectric constant

 Exchange correlation treatment:
   GGA     =    --    GGA type
   LEXCH   =     8    internal setting for exchange type
   VOSKOWN=      0    Vosko Wilk Nusair interpolation
   LHFCALC =     F    Hartree Fock is set to
   LHFONE  =     F    Hartree Fock one center treatment
   AEXX    =    0.0000 exact exchange contribution

 Linear response parameters
   LEPSILON=     F    determine dielectric tensor
   LRPA    =     F    only Hartree local field effects (RPA)
   LNABLA  =     F    use nabla operator in PAW spheres
   LVEL    =     F    velocity operator in full k-point grid
   LINTERFAST=   F  fast interpolation
   KINTER  =     0    interpolate to denser k-point grid
   CSHIFT  =0.1000    complex shift for real part using Kramers Kronig
   OMEGAMAX=  -1.0    maximum frequency
   DEG_THRESHOLD= 0.2000000E-02 threshold for treating states as degnerate
   RTIME   =   -0.100 relaxation time in fs
  (WPLASMAI=    0.000 imaginary part of plasma frequency in eV, 0.658/RTIME)
   DFIELD  = 0.0000000 0.0000000 0.0000000 field for delta impulse in time
 
 Orbital magnetization related:
   ORBITALMAG=     F  switch on orbital magnetization
   LCHIMAG   =     F  perturbation theory with respect to B field
   DQ        =  0.001000  dq finite difference perturbation B field
   LLRAUG    =     F  two centre corrections for induced B field



--------------------------------------------------------------------------------------------------------


 Static calculation
 charge density and potential will be updated during run
 spin polarized calculation
 Variant of blocked Davidson
 Davidson routine will perform the subspace rotation
 perform sub-space diagonalisation
    after iterative eigenvector-optimisation
 modified Broyden-mixing scheme, WC =      100.0
 initial mixing is a Kerker type mixing with AMIX =  0.4000 and BMIX =      1.0000
 Hartree-type preconditioning will be used
 using additional bands           10
 reciprocal scheme for non local part
 use partial core corrections
 calculate Harris-corrections to forces 
   (improved forces if not selfconsistent)
 use gradient corrections 
 use of overlap-Matrix (Vanderbilt PP)
 Methfessel and Paxton  Order N= 1 SIGMA  =   0.10


--------------------------------------------------------------------------------------------------------


  energy-cutoff  :      500.00
  volume of cell :      131.15
      direct lattice vectors                 reciprocal lattice vectors
     1.796261100 -3.111279100  0.000000000     0.278346409 -0.160711128  0.056814756
     1.796384500  3.111279100  0.000000000     0.278346409  0.160700088  0.028403078
    -1.796103700  1.037187700 11.733336000     0.000000000  0.000000000  0.085227253

  length of vectors
     3.592577289  3.592638990 11.915239004     0.326393484  0.322657677  0.085227253


 
 k-points in units of 2pi/SCALE and weight: pymatgen v2020.8.13 with grid density = 
   0.06958660 -0.00000138  0.02130564       0.031
   0.13917320 -0.04017916  0.03550932       0.031
  -0.06958660  0.08035418 -0.00710174       0.031
   0.00000000  0.04017640  0.00710195       0.031
   0.13917320  0.04017364  0.02840641       0.031
   0.20875981 -0.00000414  0.04261009       0.031
   0.00000000  0.12052921 -0.00000097       0.031
   0.06958660  0.08035142  0.01420272       0.031
  -0.06958660 -0.08035142  0.00710410       0.031
   0.00000000 -0.12052921  0.02130779       0.031
  -0.20875981  0.00000414 -0.02130328       0.031
  -0.13917320 -0.04017364 -0.00709959       0.031
   0.00000000 -0.04017640  0.01420487       0.031
   0.06958660 -0.08035418  0.02840856       0.031
  -0.13917320  0.04017916 -0.01420251       0.031
  -0.06958660  0.00000138  0.00000118       0.031
   0.06958660 -0.00000138  0.04261245       0.031
   0.13917320 -0.04017916  0.05681614       0.031
  -0.06958660  0.08035418  0.01420507       0.031
   0.00000000  0.04017640  0.02840876       0.031
   0.13917320  0.04017364  0.04971322       0.031
   0.20875981 -0.00000414  0.06391691       0.031
   0.00000000  0.12052921  0.02130584       0.031
   0.06958660  0.08035142  0.03550953       0.031
  -0.06958660 -0.08035142  0.02841091       0.031
   0.00000000 -0.12052921  0.04261460       0.031
  -0.20875981  0.00000414  0.00000353       0.031
  -0.13917320 -0.04017364  0.01420722       0.031
   0.00000000 -0.04017640  0.03551168       0.031
   0.06958660 -0.08035418  0.04971537       0.031
  -0.13917320  0.04017916  0.00710430       0.031
  -0.06958660  0.00000138  0.02130799       0.031
 
 k-points in reciprocal lattice and weights: pymatgen v2020.8.13 with grid density = 
   0.12500000  0.12500000  0.12500000       0.031
   0.37500000  0.12500000  0.12500000       0.031
  -0.37500000  0.12500000  0.12500000       0.031
  -0.12500000  0.12500000  0.12500000       0.031
   0.12500000  0.37500000  0.12500000       0.031
   0.37500000  0.37500000  0.12500000       0.031
  -0.37500000  0.37500000  0.12500000       0.031
  -0.12500000  0.37500000  0.12500000       0.031
   0.12500000 -0.37500000  0.12500000       0.031
   0.37500000 -0.37500000  0.12500000       0.031
  -0.37500000 -0.37500000  0.12500000       0.031
  -0.12500000 -0.37500000  0.12500000       0.031
   0.12500000 -0.12500000  0.12500000       0.031
   0.37500000 -0.12500000  0.12500000       0.031
  -0.37500000 -0.12500000  0.12500000       0.031
  -0.12500000 -0.12500000  0.12500000       0.031
   0.12500000  0.12500000  0.37500000       0.031
   0.37500000  0.12500000  0.37500000       0.031
  -0.37500000  0.12500000  0.37500000       0.031
  -0.12500000  0.12500000  0.37500000       0.031
   0.12500000  0.37500000  0.37500000       0.031
   0.37500000  0.37500000  0.37500000       0.031
  -0.37500000  0.37500000  0.37500000       0.031
  -0.12500000  0.37500000  0.37500000       0.031
   0.12500000 -0.37500000  0.37500000       0.031
   0.37500000 -0.37500000  0.37500000       0.031
  -0.37500000 -0.37500000  0.37500000       0.031
  -0.12500000 -0.37500000  0.37500000       0.031
   0.12500000 -0.12500000  0.37500000       0.031
   0.37500000 -0.12500000  0.37500000       0.031
  -0.37500000 -0.12500000  0.37500000       0.031
  -0.12500000 -0.12500000  0.37500000       0.031
 
 position of ions in fractional coordinates (direct lattice) 
   0.00000000  0.00000000  0.00000000
   0.50000000  0.75000000  0.25000000
   0.00000000  0.50000000  0.50000000
   0.50000000  0.25000000  0.75000000
   0.75000006  0.37500003  0.12500001
   0.25000006  0.12500003  0.37500001
   0.75000006  0.87500003  0.62500001
   0.25000006  0.62500003  0.87500001
 
 position of ions in cartesian coordinates  (Angst):
   0.00000000  0.00000000  0.00000000
   1.79639300  1.03711670  2.93333400
   0.00014040  2.07423340  5.86666800
   0.00014890  0.00007100  8.80000200
   1.79632720 -1.03708130  1.46666711
   0.00007460  0.00003540  4.40000111
   1.79646760  1.03715210  7.33333511
   0.00021500  2.07426880 10.26666911
 


--------------------------------------------------------------------------------------------------------


 k-point  1 :   0.1250 0.1250 0.1250  plane waves:    3346
 k-point  2 :   0.3750 0.1250 0.1250  plane waves:    3315
 k-point  3 :  -0.3750 0.1250 0.1250  plane waves:    3327
 k-point  4 :  -0.1250 0.1250 0.1250  plane waves:    3360
 k-point  5 :   0.1250 0.3750 0.1250  plane waves:    3316
 k-point  6 :   0.3750 0.3750 0.1250  plane waves:    3334
 k-point  7 :  -0.3750 0.3750 0.1250  plane waves:    3311
 k-point  8 :  -0.1250 0.3750 0.1250  plane waves:    3332
 k-point  9 :   0.1250-0.3750 0.1250  plane waves:    3327
 k-point 10 :   0.3750-0.3750 0.1250  plane waves:    3334
 k-point 11 :  -0.3750-0.3750 0.1250  plane waves:    3324
 k-point 12 :  -0.1250-0.3750 0.1250  plane waves:    3310
 k-point 13 :   0.1250-0.1250 0.1250  plane waves:    3358
 k-point 14 :   0.3750-0.1250 0.1250  plane waves:    3332
 k-point 15 :  -0.3750-0.1250 0.1250  plane waves:    3314
 k-point 16 :  -0.1250-0.1250 0.1250  plane waves:    3337
 k-point 17 :   0.1250 0.1250 0.3750  plane waves:    3350
 k-point 18 :   0.3750 0.1250 0.3750  plane waves:    3316
 k-point 19 :  -0.3750 0.1250 0.3750  plane waves:    3332
 k-point 20 :  -0.1250 0.1250 0.3750  plane waves:    3347
 k-point 21 :   0.1250 0.3750 0.3750  plane waves:    3315
 k-point 22 :   0.3750 0.3750 0.3750  plane waves:    3324
 k-point 23 :  -0.3750 0.3750 0.3750  plane waves:    3317
 k-point 24 :  -0.1250 0.3750 0.3750  plane waves:    3331
 k-point 25 :   0.1250-0.3750 0.3750  plane waves:    3332
 k-point 26 :   0.3750-0.3750 0.3750  plane waves:    3327
 k-point 27 :  -0.3750-0.3750 0.3750  plane waves:    3298
 k-point 28 :  -0.1250-0.3750 0.3750  plane waves:    3314
 k-point 29 :   0.1250-0.1250 0.3750  plane waves:    3350
 k-point 30 :   0.3750-0.1250 0.3750  plane waves:    3331
 k-point 31 :  -0.3750-0.1250 0.3750  plane waves:    3310
 k-point 32 :  -0.1250-0.1250 0.3750  plane waves:    3346

 maximum and minimum number of plane-waves per node :       855      803

 maximum number of plane-waves:      3360
 maximum index in each direction: 
   IXMAX=    6   IYMAX=    6   IZMAX=   21
   IXMIN=   -6   IYMIN=   -6   IZMIN=  -22


 parallel 3D FFT for wavefunctions:
    minimum data exchange during FFTs selected (reduces bandwidth)
 parallel 3D FFT for charge:
    minimum data exchange during FFTs selected (reduces bandwidth)


 total amount of memory used by VASP MPI-rank0    74019. kBytes
=======================================================================

   base      :      30000. kBytes
   nonl-proj :      14134. kBytes
   fftplans  :       1171. kBytes
   grid      :       2828. kBytes
   one-center:        196. kBytes
   wavefun   :      25690. kBytes
 
     INWAV:  cpu time    0.0000: real time    0.0001
 Broyden mixing: mesh for mixing (old mesh)
   NGX = 13   NGY = 13   NGZ = 43
  (NGX  = 40   NGY  = 40   NGZ  =140)
  gives a total of   7267 points

 initial charge density was supplied:
 charge density of overlapping atoms calculated
 number of electron      92.0000000 magnetization       0.0000000
 keeping initial charge density in first step


--------------------------------------------------------------------------------------------------------


 Maximum index for augmentation-charges         1528 (set IRDMAX)


--------------------------------------------------------------------------------------------------------


 First call to EWALD:  gamma=   0.349
 Maximum number of real-space cells 4x 4x 1
 Maximum number of reciprocal cells 2x 2x 6

    FEWALD:  cpu time    0.0015: real time    0.0015


--------------------------------------- Iteration      1(   1)  ---------------------------------------


    POTLOK:  cpu time    0.0420: real time    0.0457
    SETDIJ:  cpu time    0.0116: real time    0.0116
     EDDAV:  cpu time    3.5249: real time    3.5630
       DOS:  cpu time    0.0045: real time    0.0045
    --------------------------------------------
      LOOP:  cpu time    3.5829: real time    3.6248

 eigenvalue-minimisations  :  8400
 total energy-change (2. order) : 0.1238207E+04  (-0.3059544E+04)
 number of electron      92.0000000 magnetization       0.0000000
 augmentation part       92.0000000 magnetization       0.0000000

 Free energy of the ion-electron system (eV)
  ---------------------------------------------------
  alpha Z        PSCENC =       906.21131108
  Ewald energy   TEWEN  =     -9706.50133840
  -Hartree energ DENC   =     -2789.90800795
  -exchange      EXHF   =         0.00000000
  -V(xc)+E(xc)   XCENC  =       454.87922778
  PAW double counting   =     10245.08530371   -10827.60657067
  entropy T*S    EENTRO =        -0.00013303
  eigenvalues    EBANDS =       747.39447817
  atomic energy  EATOM  =     12208.65233032
  Solvation  Ediel_sol  =         0.00000000
  ---------------------------------------------------
  free energy    TOTEN  =      1238.20660101 eV

  energy without entropy =     1238.20673404  energy(sigma->0) =     1238.20664535


--------------------------------------------------------------------------------------------------------




--------------------------------------- Iteration      1(   2)  ---------------------------------------


     EDDAV:  cpu time    3.9501: real time    3.9606
       DOS:  cpu time    0.0057: real time    0.0057
    --------------------------------------------
      LOOP:  cpu time    3.9558: real time    3.9663

 eigenvalue-minimisations  :  9752
 total energy-change (2. order) :-0.9159904E+03  (-0.8311353E+03)
 number of electron      92.0000000 magnetization       0.0000000
 augmentation part       92.0000000 magnetization       0.0000000

 Free energy of the ion-electron system (eV)
  ---------------------------------------------------
  alpha Z        PSCENC =       906.21131108
  Ewald energy   TEWEN  =     -9706.50133840
  -Hartree energ DENC   =     -2789.90800795
  -exchange      EXHF   =         0.00000000
  -V(xc)+E(xc)   XCENC  =       454.87922778
  PAW double counting   =     10245.08530371   -10827.60657067
  entropy T*S    EENTRO =        -0.00192691
  eigenvalues    EBANDS =      -168.59413555
  atomic energy  EATOM  =     12208.65233032
  Solvation  Ediel_sol  =         0.00000000
  ---------------------------------------------------
  free energy    TOTEN  =       322.21619340 eV

  energy without entropy =      322.21812031  energy(sigma->0) =      322.21683570


--------------------------------------------------------------------------------------------------------




--------------------------------------- Iteration      1(   3)  ---------------------------------------


     EDDAV:  cpu time    4.2099: real time    4.2201
       DOS:  cpu time    0.0052: real time    0.0052
    --------------------------------------------
      LOOP:  cpu time    4.2150: real time    4.2253

 eigenvalue-minimisations  : 10568
 total energy-change (2. order) :-0.3328122E+03  (-0.3220532E+03)
 number of electron      92.0000000 magnetization       0.0000000
 augmentation part       92.0000000 magnetization       0.0000000

 Free energy of the ion-electron system (eV)
  ---------------------------------------------------
  alpha Z        PSCENC =       906.21131108
  Ewald energy   TEWEN  =     -9706.50133840
  -Hartree energ DENC   =     -2789.90800795
  -exchange      EXHF   =         0.00000000
  -V(xc)+E(xc)   XCENC  =       454.87922778
  PAW double counting   =     10245.08530371   -10827.60657067
  entropy T*S    EENTRO =         0.00001557
  eigenvalues    EBANDS =      -501.40823124
  atomic energy  EATOM  =     12208.65233032
  Solvation  Ediel_sol  =         0.00000000
  ---------------------------------------------------
  free energy    TOTEN  =       -10.59595981 eV

  energy without entropy =      -10.59597538  energy(sigma->0) =      -10.59596500


--------------------------------------------------------------------------------------------------------




--------------------------------------- Iteration      1(   4)  ---------------------------------------


     EDDAV:  cpu time    5.2516: real time    5.2642
       DOS:  cpu time    0.0060: real time    0.0060
    --------------------------------------------
      LOOP:  cpu time    5.2576: real time    5.2702

 eigenvalue-minimisations  : 13656
 total energy-change (2. order) :-0.6996039E+02  (-0.6787867E+02)
 number of electron      92.0000000 magnetization       0.0000000
 augmentation part       92.0000000 magnetization       0.0000000

 Free energy of the ion-electron system (eV)
  ---------------------------------------------------
  alpha Z        PSCENC =       906.21131108
  Ewald energy   TEWEN  =     -9706.50133840
  -Hartree energ DENC   =     -2789.90800795
  -exchange      EXHF   =         0.00000000
  -V(xc)+E(xc)   XCENC  =       454.87922778
  PAW double counting   =     10245.08530371   -10827.60657067
  entropy T*S    EENTRO =         0.01457116
  eigenvalues    EBANDS =      -571.38318065
  atomic energy  EATOM  =     12208.65233032
  Solvation  Ediel_sol  =         0.00000000
  ---------------------------------------------------
  free energy    TOTEN  =       -80.55635363 eV

  energy without entropy =      -80.57092479  energy(sigma->0) =      -80.56121068


--------------------------------------------------------------------------------------------------------




--------------------------------------- Iteration      1(   5)  ---------------------------------------


     EDDAV:  cpu time    5.2831: real time    5.2958
       DOS:  cpu time    0.0067: real time    0.0067
    CHARGE:  cpu time    0.2564: real time    0.2571
    MIXING:  cpu time    0.0009: real time    0.0009
    --------------------------------------------
      LOOP:  cpu time    5.5471: real time    5.5605

 eigenvalue-minimisations  : 13752
 total energy-change (2. order) :-0.8313056E+01  (-0.7607232E+01)
 number of electron      92.0000139 magnetization       0.0000000
 augmentation part       18.4662463 magnetization       0.0000000

 Broyden mixing:
  rms(total) = 0.37621E+01    rms(broyden)= 0.37618E+01
  rms(prec ) = 0.47145E+01
  weight for this iteration     100.00

 Free energy of the ion-electron system (eV)
  ---------------------------------------------------
  alpha Z        PSCENC =       906.21131108
  Ewald energy   TEWEN  =     -9706.50133840
  -Hartree energ DENC   =     -2789.90800795
  -exchange      EXHF   =         0.00000000
  -V(xc)+E(xc)   XCENC  =       454.87922778
  PAW double counting   =     10245.08530371   -10827.60657067
  entropy T*S    EENTRO =        -0.02880613
  eigenvalues    EBANDS =      -579.65285904
  atomic energy  EATOM  =     12208.65233032
  Solvation  Ediel_sol  =         0.00000000
  ---------------------------------------------------
  free energy    TOTEN  =       -88.86940930 eV

  energy without entropy =      -88.84060318  energy(sigma->0) =      -88.85980726


--------------------------------------------------------------------------------------------------------




--------------------------------------- Iteration      1(   6)  ---------------------------------------


    POTLOK:  cpu time    0.0359: real time    0.0363
    SETDIJ:  cpu time    0.0104: real time    0.0104
     EDDAV:  cpu time    4.7570: real time    4.7683
       DOS:  cpu time    0.0057: real time    0.0057
    CHARGE:  cpu time    0.2255: real time    0.2260
    MIXING:  cpu time    0.0011: real time    0.0012
    --------------------------------------------
      LOOP:  cpu time    5.0357: real time    5.0479

 eigenvalue-minimisations  : 12144
 total energy-change (2. order) :-0.5584204E+02  (-0.7652176E+02)
 number of electron      92.0000070 magnetization       0.0000000
 augmentation part       44.3013268 magnetization       0.0000000

 Broyden mixing:
  rms(total) = 0.15448E+02    rms(broyden)= 0.15447E+02
  rms(prec ) = 0.18243E+02
  weight for this iteration     100.00

 eigenvalues of (default mixing * dielectric matrix)
  average eigenvalue GAMMA=   0.1482
  0.1482

 Free energy of the ion-electron system (eV)
  ---------------------------------------------------
  alpha Z        PSCENC =       906.21131108
  Ewald energy   TEWEN  =     -9706.50133840
  -Hartree energ DENC   =     -2548.89254573
  -exchange      EXHF   =         0.00000000
  -V(xc)+E(xc)   XCENC  =       449.66314351
  PAW double counting   =      9895.24222111   -10379.66924509
  entropy T*S    EENTRO =         0.00071365
  eigenvalues    EBANDS =      -969.41803735
  atomic energy  EATOM  =     12208.65233032
  Solvation  Ediel_sol  =         0.00000000
  ---------------------------------------------------
  free energy    TOTEN  =      -144.71144691 eV

  energy without entropy =     -144.71216056  energy(sigma->0) =     -144.71168479


--------------------------------------------------------------------------------------------------------




--------------------------------------- Iteration      1(   7)  ---------------------------------------


    POTLOK:  cpu time    0.0354: real time    0.0356
    SETDIJ:  cpu time    0.0111: real time    0.0112
     EDDAV:  cpu time    4.4326: real time    4.4431
       DOS:  cpu time    0.0051: real time    0.0052
    CHARGE:  cpu time    0.2437: real time    0.2443
    MIXING:  cpu time    0.0012: real time    0.0012
    --------------------------------------------
      LOOP:  cpu time    4.7292: real time    4.7405

 eigenvalue-minimisations  : 11216
 total energy-change (2. order) : 0.9351567E+02  (-0.8828020E+02)
 number of electron      92.0000113 magnetization       0.0000000
 augmentation part       23.4170020 magnetization       0.0000000

 Broyden mixing:
  rms(total) = 0.54998E+01    rms(broyden)= 0.54995E+01
  rms(prec ) = 0.55497E+01
  weight for this iteration     100.00

 eigenvalues of (default mixing * dielectric matrix)
  average eigenvalue GAMMA=   0.1394
  0.1394  0.1394

 Free energy of the ion-electron system (eV)
  ---------------------------------------------------
  alpha Z        PSCENC =       906.21131108
  Ewald energy   TEWEN  =     -9706.50133840
  -Hartree energ DENC   =     -2697.45196899
  -exchange      EXHF   =         0.00000000
  -V(xc)+E(xc)   XCENC  =       450.82826293
  PAW double counting   =     10278.57739119   -10855.45495153
  entropy T*S    EENTRO =         0.00064330
  eigenvalues    EBANDS =      -636.05745683
  atomic energy  EATOM  =     12208.65233032
  Solvation  Ediel_sol  =         0.00000000
  ---------------------------------------------------
  free energy    TOTEN  =       -51.19577693 eV

  energy without entropy =      -51.19642022  energy(sigma->0) =      -51.19599136


--------------------------------------------------------------------------------------------------------




--------------------------------------- Iteration      1(   8)  ---------------------------------------


    POTLOK:  cpu time    0.0362: real time    0.0365
    SETDIJ:  cpu time    0.0105: real time    0.0130
     EDDAV:  cpu time    4.9511: real time    4.9629
       DOS:  cpu time    0.0061: real time    0.0061
    CHARGE:  cpu time    0.2271: real time    0.2277
    MIXING:  cpu time    0.0012: real time    0.0012
    --------------------------------------------
      LOOP:  cpu time    5.2322: real time    5.2474

 eigenvalue-minimisations  : 12776
 total energy-change (2. order) :-0.2960868E+02  (-0.2724066E+02)
 number of electron      92.0000137 magnetization       0.0000000
 augmentation part       24.3062406 magnetization       0.0000000

 Broyden mixing:
  rms(total) = 0.31384E+01    rms(broyden)= 0.31382E+01
  rms(prec ) = 0.32055E+01
  weight for this iteration     100.00

 eigenvalues of (default mixing * dielectric matrix)
  average eigenvalue GAMMA=   0.2441
  0.2510  0.2407  0.2407

 Free energy of the ion-electron system (eV)
  ---------------------------------------------------
  alpha Z        PSCENC =       906.21131108
  Ewald energy   TEWEN  =     -9706.50133840
  -Hartree energ DENC   =     -2698.33951630
  -exchange      EXHF   =         0.00000000
  -V(xc)+E(xc)   XCENC  =       452.00735934
  PAW double counting   =     10305.12607724   -10884.55584206
  entropy T*S    EENTRO =         0.01869013
  eigenvalues    EBANDS =      -663.42352702
  atomic energy  EATOM  =     12208.65233032
  Solvation  Ediel_sol  =         0.00000000
  ---------------------------------------------------
  free energy    TOTEN  =       -80.80445568 eV

  energy without entropy =      -80.82314581  energy(sigma->0) =      -80.81068572


--------------------------------------------------------------------------------------------------------




--------------------------------------- Iteration      1(   9)  ---------------------------------------


    POTLOK:  cpu time    0.0347: real time    0.0348
    SETDIJ:  cpu time    0.0104: real time    0.0104
     EDDAV:  cpu time    4.4386: real time    4.4492
       DOS:  cpu time    0.0055: real time    0.0055
    CHARGE:  cpu time    0.2313: real time    0.2318
    MIXING:  cpu time    0.0012: real time    0.0012
    --------------------------------------------
      LOOP:  cpu time    4.7216: real time    4.7330

 eigenvalue-minimisations  : 11200
 total energy-change (2. order) :-0.1856236E+01  (-0.2746511E+01)
 number of electron      92.0000129 magnetization       0.0000000
 augmentation part       22.3860448 magnetization       0.0000000

 Broyden mixing:
  rms(total) = 0.16157E+01    rms(broyden)= 0.16157E+01
  rms(prec ) = 0.16882E+01
  weight for this iteration     100.00

 eigenvalues of (default mixing * dielectric matrix)
  average eigenvalue GAMMA=   0.4157
  0.6436  0.5233  0.2480  0.2480

 Free energy of the ion-electron system (eV)
  ---------------------------------------------------
  alpha Z        PSCENC =       906.21131108
  Ewald energy   TEWEN  =     -9706.50133840
  -Hartree energ DENC   =     -2764.34214262
  -exchange      EXHF   =         0.00000000
  -V(xc)+E(xc)   XCENC  =       458.12077674
  PAW double counting   =     10409.20437150   -11015.34890970
  entropy T*S    EENTRO =         0.03858429
  eigenvalues    EBANDS =      -578.69567499
  atomic energy  EATOM  =     12208.65233032
  Solvation  Ediel_sol  =         0.00000000
  ---------------------------------------------------
  free energy    TOTEN  =       -82.66069179 eV

  energy without entropy =      -82.69927608  energy(sigma->0) =      -82.67355322


--------------------------------------------------------------------------------------------------------




--------------------------------------- Iteration      1(  10)  ---------------------------------------


    POTLOK:  cpu time    0.0351: real time    0.0353
    SETDIJ:  cpu time    0.0106: real time    0.0106
     EDDAV:  cpu time    5.4156: real time    5.4287
       DOS:  cpu time    0.0060: real time    0.0060
    CHARGE:  cpu time    0.2217: real time    0.2223
    MIXING:  cpu time    0.0013: real time    0.0013
    --------------------------------------------
      LOOP:  cpu time    5.6904: real time    5.7042

 eigenvalue-minimisations  : 14144
 total energy-change (2. order) :-0.5658464E+00  (-0.2963192E+00)
 number of electron      92.0000128 magnetization       0.0000000
 augmentation part       22.3405523 magnetization       0.0000000

 Broyden mixing:
  rms(total) = 0.13145E+01    rms(broyden)= 0.13145E+01
  rms(prec ) = 0.13840E+01
  weight for this iteration     100.00

 eigenvalues of (default mixing * dielectric matrix)
  average eigenvalue GAMMA=   0.4897
  0.8011  0.8011  0.2589  0.2589  0.3286

 Free energy of the ion-electron system (eV)
  ---------------------------------------------------
  alpha Z        PSCENC =       906.21131108
  Ewald energy   TEWEN  =     -9706.50133840
  -Hartree energ DENC   =     -2769.03573238
  -exchange      EXHF   =         0.00000000
  -V(xc)+E(xc)   XCENC  =       459.66797512
  PAW double counting   =     10448.33670203   -11061.64285929
  entropy T*S    EENTRO =         0.03595218
  eigenvalues    EBANDS =      -568.95087887
  atomic energy  EATOM  =     12208.65233032
  Solvation  Ediel_sol  =         0.00000000
  ---------------------------------------------------
  free energy    TOTEN  =       -83.22653821 eV

  energy without entropy =      -83.26249039  energy(sigma->0) =      -83.23852227


--------------------------------------------------------------------------------------------------------




--------------------------------------- Iteration      1(  11)  ---------------------------------------


    POTLOK:  cpu time    0.0348: real time    0.0350
    SETDIJ:  cpu time    0.0104: real time    0.0104
     EDDAV:  cpu time    5.1475: real time    5.1598
       DOS:  cpu time    0.0060: real time    0.0061
    CHARGE:  cpu time    0.2284: real time    0.2290
    MIXING:  cpu time    0.0015: real time    0.0015
    --------------------------------------------
      LOOP:  cpu time    5.4288: real time    5.4418

 eigenvalue-minimisations  : 13352
 total energy-change (2. order) : 0.2913280E-02  (-0.3768484E-01)
 number of electron      92.0000128 magnetization       0.0000000
 augmentation part       22.5931458 magnetization       0.0000000

 Broyden mixing:
  rms(total) = 0.11422E+01    rms(broyden)= 0.11422E+01
  rms(prec ) = 0.11837E+01
  weight for this iteration     100.00

 eigenvalues of (default mixing * dielectric matrix)
  average eigenvalue GAMMA=   0.7309
  1.6079  1.2905  0.2561  0.2561  0.4044  0.5701

 Free energy of the ion-electron system (eV)
  ---------------------------------------------------
  alpha Z        PSCENC =       906.21131108
  Ewald energy   TEWEN  =     -9706.50133840
  -Hartree energ DENC   =     -2765.22604940
  -exchange      EXHF   =         0.00000000
  -V(xc)+E(xc)   XCENC  =       460.49912270
  PAW double counting   =     10472.13113417   -11086.70715638
  entropy T*S    EENTRO =         0.03418677
  eigenvalues    EBANDS =      -572.31716578
  atomic energy  EATOM  =     12208.65233032
  Solvation  Ediel_sol  =         0.00000000
  ---------------------------------------------------
  free energy    TOTEN  =       -83.22362493 eV

  energy without entropy =      -83.25781170  energy(sigma->0) =      -83.23502052


--------------------------------------------------------------------------------------------------------




--------------------------------------- Iteration      1(  12)  ---------------------------------------


    POTLOK:  cpu time    0.0352: real time    0.0354
    SETDIJ:  cpu time    0.0106: real time    0.0106
     EDDAV:  cpu time    4.9243: real time    4.9361
       DOS:  cpu time    0.0061: real time    0.0061
    CHARGE:  cpu time    0.2242: real time    0.2248
    MIXING:  cpu time    0.0015: real time    0.0015
    --------------------------------------------
      LOOP:  cpu time    5.2018: real time    5.2144

 eigenvalue-minimisations  : 12688
 total energy-change (2. order) :-0.8643277E-01  (-0.6614013E-01)
 number of electron      92.0000127 magnetization       0.0000000
 augmentation part       23.0340086 magnetization       0.0000000

 Broyden mixing:
  rms(total) = 0.76133E+00    rms(broyden)= 0.76133E+00
  rms(prec ) = 0.77256E+00
  weight for this iteration     100.00

 eigenvalues of (default mixing * dielectric matrix)
  average eigenvalue GAMMA=   0.7994
  2.0785  1.3368  0.2568  0.2568  0.3750  0.6459  0.6459

 Free energy of the ion-electron system (eV)
  ---------------------------------------------------
  alpha Z        PSCENC =       906.21131108
  Ewald energy   TEWEN  =     -9706.50133840
  -Hartree energ DENC   =     -2761.00466082
  -exchange      EXHF   =         0.00000000
  -V(xc)+E(xc)   XCENC  =       462.84399118
  PAW double counting   =     10529.70869045   -11147.02648203
  entropy T*S    EENTRO =         0.02231023
  eigenvalues    EBANDS =      -576.21620971
  atomic energy  EATOM  =     12208.65233032
  Solvation  Ediel_sol  =         0.00000000
  ---------------------------------------------------
  free energy    TOTEN  =       -83.31005770 eV

  energy without entropy =      -83.33236793  energy(sigma->0) =      -83.31749444


--------------------------------------------------------------------------------------------------------




--------------------------------------- Iteration      1(  13)  ---------------------------------------


    POTLOK:  cpu time    0.0350: real time    0.0354
    SETDIJ:  cpu time    0.0105: real time    0.0105
     EDDAV:  cpu time    5.4127: real time    5.4255
       DOS:  cpu time    0.0057: real time    0.0057
    CHARGE:  cpu time    0.2151: real time    0.2156
    MIXING:  cpu time    0.0016: real time    0.0016
    --------------------------------------------
      LOOP:  cpu time    5.6807: real time    5.6944

 eigenvalue-minimisations  : 14120
 total energy-change (2. order) :-0.5211611E-01  (-0.1955520E-01)
 number of electron      92.0000127 magnetization       0.0000000
 augmentation part       23.0987450 magnetization       0.0000000

 Broyden mixing:
  rms(total) = 0.67774E+00    rms(broyden)= 0.67773E+00
  rms(prec ) = 0.69332E+00
  weight for this iteration     100.00

 eigenvalues of (default mixing * dielectric matrix)
  average eigenvalue GAMMA=   0.7512
  2.1606  1.3610  0.6577  0.6577  0.2567  0.2567  0.3295  0.3295

 Free energy of the ion-electron system (eV)
  ---------------------------------------------------
  alpha Z        PSCENC =       906.21131108
  Ewald energy   TEWEN  =     -9706.50133840
  -Hartree energ DENC   =     -2761.14001210
  -exchange      EXHF   =         0.00000000
  -V(xc)+E(xc)   XCENC  =       463.52915177
  PAW double counting   =     10530.26831836   -11146.84274103
  entropy T*S    EENTRO =         0.01842600
  eigenvalues    EBANDS =      -577.55761981
  atomic energy  EATOM  =     12208.65233032
  Solvation  Ediel_sol  =         0.00000000
  ---------------------------------------------------
  free energy    TOTEN  =       -83.36217381 eV

  energy without entropy =      -83.38059980  energy(sigma->0) =      -83.36831580


--------------------------------------------------------------------------------------------------------




--------------------------------------- Iteration      1(  14)  ---------------------------------------


    POTLOK:  cpu time    0.0353: real time    0.0355
    SETDIJ:  cpu time    0.0108: real time    0.0108
     EDDAV:  cpu time    4.8779: real time    4.8894
       DOS:  cpu time    0.0061: real time    0.0061
    CHARGE:  cpu time    0.2239: real time    0.2244
    MIXING:  cpu time    0.0017: real time    0.0017
    --------------------------------------------
      LOOP:  cpu time    5.1556: real time    5.1679

 eigenvalue-minimisations  : 12520
 total energy-change (2. order) :-0.1551072E-01  (-0.2613965E-02)
 number of electron      92.0000127 magnetization       0.0000000
 augmentation part       23.1796253 magnetization       0.0000000

 Broyden mixing:
  rms(total) = 0.62944E+00    rms(broyden)= 0.62944E+00
  rms(prec ) = 0.64518E+00
  weight for this iteration     100.00

 eigenvalues of (default mixing * dielectric matrix)
  average eigenvalue GAMMA=   1.0378
  2.6626  2.6626  0.9410  0.9410  0.2566  0.2566  0.3863  0.6168  0.6168

 Free energy of the ion-electron system (eV)
  ---------------------------------------------------
  alpha Z        PSCENC =       906.21131108
  Ewald energy   TEWEN  =     -9706.50133840
  -Hartree energ DENC   =     -2760.50172505
  -exchange      EXHF   =         0.00000000
  -V(xc)+E(xc)   XCENC  =       463.94749383
  PAW double counting   =     10533.84128382   -11149.42096526
  entropy T*S    EENTRO =         0.01611674
  eigenvalues    EBANDS =      -579.62219161
  atomic energy  EATOM  =     12208.65233032
  Solvation  Ediel_sol  =         0.00000000
  ---------------------------------------------------
  free energy    TOTEN  =       -83.37768453 eV

  energy without entropy =      -83.39380127  energy(sigma->0) =      -83.38305678


--------------------------------------------------------------------------------------------------------




--------------------------------------- Iteration      1(  15)  ---------------------------------------


    POTLOK:  cpu time    0.0347: real time    0.0349
    SETDIJ:  cpu time    0.0105: real time    0.0105
     EDDAV:  cpu time    4.6425: real time    4.6534
       DOS:  cpu time    0.0059: real time    0.0059
    CHARGE:  cpu time    0.2170: real time    0.2175
    MIXING:  cpu time    0.0018: real time    0.0018
    --------------------------------------------
      LOOP:  cpu time    4.9125: real time    4.9242

 eigenvalue-minimisations  : 11816
 total energy-change (2. order) :-0.2632595E-01  (-0.1308917E-01)
 number of electron      92.0000127 magnetization       0.0000000
 augmentation part       23.4158187 magnetization       0.0000000

 Broyden mixing:
  rms(total) = 0.44791E+00    rms(broyden)= 0.44791E+00
  rms(prec ) = 0.47858E+00
  weight for this iteration     100.00

 eigenvalues of (default mixing * dielectric matrix)
  average eigenvalue GAMMA=   1.0705
  2.9221  2.9221  1.4752  0.2565  0.2565  0.7196  0.7196  0.3877  0.5228  0.5228

 Free energy of the ion-electron system (eV)
  ---------------------------------------------------
  alpha Z        PSCENC =       906.21131108
  Ewald energy   TEWEN  =     -9706.50133840
  -Hartree energ DENC   =     -2762.36491008
  -exchange      EXHF   =         0.00000000
  -V(xc)+E(xc)   XCENC  =       466.23188372
  PAW double counting   =     10558.88507134   -11170.05691357
  entropy T*S    EENTRO =         0.01142443
  eigenvalues    EBANDS =      -584.47286931
  atomic energy  EATOM  =     12208.65233032
  Solvation  Ediel_sol  =         0.00000000
  ---------------------------------------------------
  free energy    TOTEN  =       -83.40401048 eV

  energy without entropy =      -83.41543491  energy(sigma->0) =      -83.40781862


--------------------------------------------------------------------------------------------------------




--------------------------------------- Iteration      1(  16)  ---------------------------------------


    POTLOK:  cpu time    0.0348: real time    0.0349
    SETDIJ:  cpu time    0.0104: real time    0.0105
     EDDAV:  cpu time    5.2698: real time    5.2822
       DOS:  cpu time    0.0061: real time    0.0062
    CHARGE:  cpu time    0.2254: real time    0.2259
    MIXING:  cpu time    0.0019: real time    0.0019
    --------------------------------------------
      LOOP:  cpu time    5.5484: real time    5.5616

 eigenvalue-minimisations  : 13704
 total energy-change (2. order) : 0.5139858E-01  (-0.5654650E-02)
 number of electron      92.0000127 magnetization       0.0000000
 augmentation part       23.5135556 magnetization       0.0000000

 Broyden mixing:
  rms(total) = 0.48863E+00    rms(broyden)= 0.48863E+00
  rms(prec ) = 0.51960E+00
  weight for this iteration     100.00

 eigenvalues of (default mixing * dielectric matrix)
  average eigenvalue GAMMA=   1.2640
  4.3751  2.5668  2.5668  0.2565  0.2565  0.8221  0.8221  0.3873  0.6383  0.6383
  0.5740

 Free energy of the ion-electron system (eV)
  ---------------------------------------------------
  alpha Z        PSCENC =       906.21131108
  Ewald energy   TEWEN  =     -9706.50133840
  -Hartree energ DENC   =     -2761.41419585
  -exchange      EXHF   =         0.00000000
  -V(xc)+E(xc)   XCENC  =       467.14736897
  PAW double counting   =     10575.53459143   -11186.26760259
  entropy T*S    EENTRO =         0.01028136
  eigenvalues    EBANDS =      -586.72535821
  atomic energy  EATOM  =     12208.65233032
  Solvation  Ediel_sol  =         0.00000000
  ---------------------------------------------------
  free energy    TOTEN  =       -83.35261190 eV

  energy without entropy =      -83.36289326  energy(sigma->0) =      -83.35603902


--------------------------------------------------------------------------------------------------------




--------------------------------------- Iteration      1(  17)  ---------------------------------------


    POTLOK:  cpu time    0.0351: real time    0.0353
    SETDIJ:  cpu time    0.0107: real time    0.0107
     EDDAV:  cpu time    4.9148: real time    4.9263
       DOS:  cpu time    0.0060: real time    0.0060
    CHARGE:  cpu time    0.2137: real time    0.2142
    MIXING:  cpu time    0.0020: real time    0.0020
    --------------------------------------------
      LOOP:  cpu time    5.1824: real time    5.1947

 eigenvalue-minimisations  : 12648
 total energy-change (2. order) : 0.3563425E-01  (-0.8805387E-02)
 number of electron      92.0000128 magnetization       0.0000000
 augmentation part       23.4661293 magnetization       0.0000000

 Broyden mixing:
  rms(total) = 0.38816E+00    rms(broyden)= 0.38815E+00
  rms(prec ) = 0.40393E+00
  weight for this iteration     100.00

 eigenvalues of (default mixing * dielectric matrix)
  average eigenvalue GAMMA=   1.3754
  4.3671  4.3671  2.5453  0.9394  0.9394  0.2565  0.2565  0.3870  0.6599  0.6599
  0.5632  0.5632

 Free energy of the ion-electron system (eV)
  ---------------------------------------------------
  alpha Z        PSCENC =       906.21131108
  Ewald energy   TEWEN  =     -9706.50133840
  -Hartree energ DENC   =     -2758.97429840
  -exchange      EXHF   =         0.00000000
  -V(xc)+E(xc)   XCENC  =       466.63559301
  PAW double counting   =     10583.53756496   -11195.86611291
  entropy T*S    EENTRO =         0.01296000
  eigenvalues    EBANDS =      -587.02498731
  atomic energy  EATOM  =     12208.65233032
  Solvation  Ediel_sol  =         0.00000000
  ---------------------------------------------------
  free energy    TOTEN  =       -83.31697765 eV

  energy without entropy =      -83.32993765  energy(sigma->0) =      -83.32129765


--------------------------------------------------------------------------------------------------------




--------------------------------------- Iteration      1(  18)  ---------------------------------------


    POTLOK:  cpu time    0.0355: real time    0.0356
    SETDIJ:  cpu time    0.0111: real time    0.0111
     EDDAV:  cpu time    4.9271: real time    4.9388
       DOS:  cpu time    0.0062: real time    0.0062
    CHARGE:  cpu time    0.2202: real time    0.2207
    MIXING:  cpu time    0.0025: real time    0.0025
    --------------------------------------------
      LOOP:  cpu time    5.2027: real time    5.2151

 eigenvalue-minimisations  : 12672
 total energy-change (2. order) :-0.2179942E-01  (-0.1382310E-01)
 number of electron      92.0000129 magnetization       0.0000000
 augmentation part       23.3617230 magnetization       0.0000000

 Broyden mixing:
  rms(total) = 0.12851E+00    rms(broyden)= 0.12850E+00
  rms(prec ) = 0.13177E+00
  weight for this iteration     100.00

 eigenvalues of (default mixing * dielectric matrix)
  average eigenvalue GAMMA=   1.3697
  4.4751  4.4751  2.4169  1.1219  1.1219  0.2565  0.2565  0.7580  0.7580  0.3871
  0.5971  0.5971  0.5846

 Free energy of the ion-electron system (eV)
  ---------------------------------------------------
  alpha Z        PSCENC =       906.21131108
  Ewald energy   TEWEN  =     -9706.50133840
  -Hartree energ DENC   =     -2755.61667676
  -exchange      EXHF   =         0.00000000
  -V(xc)+E(xc)   XCENC  =       465.16547917
  PAW double counting   =     10580.42345234   -11194.71479784
  entropy T*S    EENTRO =         0.01688084
  eigenvalues    EBANDS =      -586.97541782
  atomic energy  EATOM  =     12208.65233032
  Solvation  Ediel_sol  =         0.00000000
  ---------------------------------------------------
  free energy    TOTEN  =       -83.33877707 eV

  energy without entropy =      -83.35565791  energy(sigma->0) =      -83.34440402


--------------------------------------------------------------------------------------------------------




--------------------------------------- Iteration      1(  19)  ---------------------------------------


    POTLOK:  cpu time    0.0358: real time    0.0360
    SETDIJ:  cpu time    0.0113: real time    0.0113
     EDDAV:  cpu time    5.2711: real time    5.2836
       DOS:  cpu time    0.0064: real time    0.0064
    CHARGE:  cpu time    0.2216: real time    0.2221
    MIXING:  cpu time    0.0023: real time    0.0023
    --------------------------------------------
      LOOP:  cpu time    5.5485: real time    5.5617

 eigenvalue-minimisations  : 13704
 total energy-change (2. order) :-0.5915289E-02  (-0.2445168E-02)
 number of electron      92.0000129 magnetization       0.0000000
 augmentation part       23.3413882 magnetization       0.0000000

 Broyden mixing:
  rms(total) = 0.78384E-01    rms(broyden)= 0.78382E-01
  rms(prec ) = 0.79704E-01
  weight for this iteration     100.00

 eigenvalues of (default mixing * dielectric matrix)
  average eigenvalue GAMMA=   1.3439
  4.6704  4.6704  2.3004  1.1769  1.1769  0.2565  0.2565  0.7551  0.7551  0.3871
  0.6515  0.6515  0.5597  0.5464

 Free energy of the ion-electron system (eV)
  ---------------------------------------------------
  alpha Z        PSCENC =       906.21131108
  Ewald energy   TEWEN  =     -9706.50133840
  -Hartree energ DENC   =     -2755.27136287
  -exchange      EXHF   =         0.00000000
  -V(xc)+E(xc)   XCENC  =       464.87804579
  PAW double counting   =     10581.04115695   -11195.27647791
  entropy T*S    EENTRO =         0.01750500
  eigenvalues    EBANDS =      -587.09586232
  atomic energy  EATOM  =     12208.65233032
  Solvation  Ediel_sol  =         0.00000000
  ---------------------------------------------------
  free energy    TOTEN  =       -83.34469236 eV

  energy without entropy =      -83.36219736  energy(sigma->0) =      -83.35052736


--------------------------------------------------------------------------------------------------------




--------------------------------------- Iteration      1(  20)  ---------------------------------------


    POTLOK:  cpu time    0.0351: real time    0.0353
    SETDIJ:  cpu time    0.0106: real time    0.0107
     EDDAV:  cpu time    4.9987: real time    5.0105
       DOS:  cpu time    0.0058: real time    0.0058
    CHARGE:  cpu time    0.2250: real time    0.2256
    MIXING:  cpu time    0.0025: real time    0.0025
    --------------------------------------------
      LOOP:  cpu time    5.2778: real time    5.2903

 eigenvalue-minimisations  : 12904
 total energy-change (2. order) :-0.1253430E-02  (-0.3033700E-03)
 number of electron      92.0000129 magnetization       0.0000000
 augmentation part       23.3194178 magnetization       0.0000000

 Broyden mixing:
  rms(total) = 0.31021E-01    rms(broyden)= 0.31020E-01
  rms(prec ) = 0.31360E-01
  weight for this iteration     100.00

 eigenvalues of (default mixing * dielectric matrix)
  average eigenvalue GAMMA=   1.3410
  4.6977  4.6977  2.3444  1.2290  1.2290  0.2565  0.2565  0.8357  0.8357  0.7879
  0.7879  0.3871  0.5845  0.5845  0.6002

 Free energy of the ion-electron system (eV)
  ---------------------------------------------------
  alpha Z        PSCENC =       906.21131108
  Ewald energy   TEWEN  =     -9706.50133840
  -Hartree energ DENC   =     -2755.12739116
  -exchange      EXHF   =         0.00000000
  -V(xc)+E(xc)   XCENC  =       464.64857753
  PAW double counting   =     10577.43933807   -11191.84257636
  entropy T*S    EENTRO =         0.01810165
  eigenvalues    EBANDS =      -586.84429852
  atomic energy  EATOM  =     12208.65233032
  Solvation  Ediel_sol  =         0.00000000
  ---------------------------------------------------
  free energy    TOTEN  =       -83.34594579 eV

  energy without entropy =      -83.36404744  energy(sigma->0) =      -83.35197967


--------------------------------------------------------------------------------------------------------




--------------------------------------- Iteration      1(  21)  ---------------------------------------


    POTLOK:  cpu time    0.0347: real time    0.0349
    SETDIJ:  cpu time    0.0105: real time    0.0106
     EDDAV:  cpu time    5.2695: real time    5.2819
       DOS:  cpu time    0.0061: real time    0.0061
    CHARGE:  cpu time    0.2240: real time    0.2245
    MIXING:  cpu time    0.0026: real time    0.0026
    --------------------------------------------
      LOOP:  cpu time    5.5474: real time    5.5606

 eigenvalue-minimisations  : 13704
 total energy-change (2. order) :-0.3083295E-03  (-0.1091658E-03)
 number of electron      92.0000129 magnetization       0.0000000
 augmentation part       23.3110652 magnetization       0.0000000

 Broyden mixing:
  rms(total) = 0.16547E-01    rms(broyden)= 0.16546E-01
  rms(prec ) = 0.16705E-01
  weight for this iteration     100.00

 eigenvalues of (default mixing * dielectric matrix)
  average eigenvalue GAMMA=   1.3680
  4.6503  4.6503  2.4980  1.9439  1.2735  1.0312  1.0312  0.2565  0.2565  0.3871
  0.7719  0.6972  0.6273  0.6273  0.5929  0.5929

 Free energy of the ion-electron system (eV)
  ---------------------------------------------------
  alpha Z        PSCENC =       906.21131108
  Ewald energy   TEWEN  =     -9706.50133840
  -Hartree energ DENC   =     -2755.06908389
  -exchange      EXHF   =         0.00000000
  -V(xc)+E(xc)   XCENC  =       464.57759231
  PAW double counting   =     10575.38999162   -11189.95405117
  entropy T*S    EENTRO =         0.01826523
  eigenvalues    EBANDS =      -586.67127122
  atomic energy  EATOM  =     12208.65233032
  Solvation  Ediel_sol  =         0.00000000
  ---------------------------------------------------
  free energy    TOTEN  =       -83.34625412 eV

  energy without entropy =      -83.36451935  energy(sigma->0) =      -83.35234253


--------------------------------------------------------------------------------------------------------




--------------------------------------- Iteration      1(  22)  ---------------------------------------


    POTLOK:  cpu time    0.0356: real time    0.0357
    SETDIJ:  cpu time    0.0109: real time    0.0109
     EDDAV:  cpu time    4.8458: real time    4.8573
       DOS:  cpu time    0.0060: real time    0.0060
    CHARGE:  cpu time    0.2242: real time    0.2247
    MIXING:  cpu time    0.0028: real time    0.0028
    --------------------------------------------
      LOOP:  cpu time    5.1253: real time    5.1374

 eigenvalue-minimisations  : 12472
 total energy-change (2. order) :-0.3178668E-04  (-0.1593868E-04)
 number of electron      92.0000129 magnetization       0.0000000
 augmentation part       23.3085345 magnetization       0.0000000

 Broyden mixing:
  rms(total) = 0.56776E-02    rms(broyden)= 0.56769E-02
  rms(prec ) = 0.58988E-02
  weight for this iteration     100.00

 eigenvalues of (default mixing * dielectric matrix)
  average eigenvalue GAMMA=   1.3623
  4.6442  4.6442  2.5031  2.5031  1.1354  1.1354  1.1328  0.2565  0.2565  0.3871
  0.6907  0.6907  0.7199  0.7199  0.5791  0.5791  0.5807

 Free energy of the ion-electron system (eV)
  ---------------------------------------------------
  alpha Z        PSCENC =       906.21131108
  Ewald energy   TEWEN  =     -9706.50133840
  -Hartree energ DENC   =     -2755.02085519
  -exchange      EXHF   =         0.00000000
  -V(xc)+E(xc)   XCENC  =       464.53022507
  PAW double counting   =     10573.17066483   -11187.76650443
  entropy T*S    EENTRO =         0.01834203
  eigenvalues    EBANDS =      -586.64046121
  atomic energy  EATOM  =     12208.65233032
  Solvation  Ediel_sol  =         0.00000000
  ---------------------------------------------------
  free energy    TOTEN  =       -83.34628590 eV

  energy without entropy =      -83.36462793  energy(sigma->0) =      -83.35239991


--------------------------------------------------------------------------------------------------------




--------------------------------------- Iteration      1(  23)  ---------------------------------------


    POTLOK:  cpu time    0.0358: real time    0.0360
    SETDIJ:  cpu time    0.0105: real time    0.0105
     EDDAV:  cpu time    5.0628: real time    5.0747
       DOS:  cpu time    0.0060: real time    0.0060
    CHARGE:  cpu time    0.2239: real time    0.2244
    MIXING:  cpu time    0.0029: real time    0.0029
    --------------------------------------------
      LOOP:  cpu time    5.3420: real time    5.3547

 eigenvalue-minimisations  : 13056
 total energy-change (2. order) :-0.9404921E-06  (-0.4431818E-05)
 number of electron      92.0000129 magnetization       0.0000000
 augmentation part       23.3066017 magnetization       0.0000000

 Broyden mixing:
  rms(total) = 0.40482E-02    rms(broyden)= 0.40473E-02
  rms(prec ) = 0.41311E-02
  weight for this iteration     100.00

 eigenvalues of (default mixing * dielectric matrix)
  average eigenvalue GAMMA=   1.3655
  4.7163  4.7163  2.6302  2.6302  1.2354  1.2354  1.1187  0.2565  0.2565  0.7963
  0.7963  0.3871  0.7082  0.7082  0.6044  0.6044  0.5897  0.5897

 Free energy of the ion-electron system (eV)
  ---------------------------------------------------
  alpha Z        PSCENC =       906.21131108
  Ewald energy   TEWEN  =     -9706.50133840
  -Hartree energ DENC   =     -2755.08063044
  -exchange      EXHF   =         0.00000000
  -V(xc)+E(xc)   XCENC  =       464.52871340
  PAW double counting   =     10572.24270560   -11186.83662729
  entropy T*S    EENTRO =         0.01834277
  eigenvalues    EBANDS =      -586.58109389
  atomic energy  EATOM  =     12208.65233032
  Solvation  Ediel_sol  =         0.00000000
  ---------------------------------------------------
  free energy    TOTEN  =       -83.34628685 eV

  energy without entropy =      -83.36462961  energy(sigma->0) =      -83.35240110


--------------------------------------------------------------------------------------------------------




--------------------------------------- Iteration      1(  24)  ---------------------------------------


    POTLOK:  cpu time    0.0355: real time    0.0356
    SETDIJ:  cpu time    0.0111: real time    0.0111
     EDDAV:  cpu time    4.7221: real time    4.7332
       DOS:  cpu time    0.0058: real time    0.0058
    CHARGE:  cpu time    0.2244: real time    0.2249
    MIXING:  cpu time    0.0031: real time    0.0031
    --------------------------------------------
      LOOP:  cpu time    5.0019: real time    5.0138

 eigenvalue-minimisations  : 12032
 total energy-change (2. order) :-0.5020320E-06  (-0.1789579E-05)
 number of electron      92.0000129 magnetization       0.0000000
 augmentation part       23.3043566 magnetization       0.0000000

 Broyden mixing:
  rms(total) = 0.79917E-03    rms(broyden)= 0.79473E-03
  rms(prec ) = 0.89875E-03
  weight for this iteration     100.00

 eigenvalues of (default mixing * dielectric matrix)
  average eigenvalue GAMMA=   1.3416
  4.7140  4.7140  2.6496  2.6496  1.3944  1.1849  1.1849  0.2565  0.2565  0.8040
  0.8040  0.3871  0.7257  0.7257  0.6423  0.6423  0.5914  0.5914  0.5718

 Free energy of the ion-electron system (eV)
  ---------------------------------------------------
  alpha Z        PSCENC =       906.21131108
  Ewald energy   TEWEN  =     -9706.50133840
  -Hartree energ DENC   =     -2755.09337201
  -exchange      EXHF   =         0.00000000
  -V(xc)+E(xc)   XCENC  =       464.51362269
  PAW double counting   =     10571.39077726   -11186.01218970
  entropy T*S    EENTRO =         0.01838337
  eigenvalues    EBANDS =      -586.52581195
  atomic energy  EATOM  =     12208.65233032
  Solvation  Ediel_sol  =         0.00000000
  ---------------------------------------------------
  free energy    TOTEN  =       -83.34628735 eV

  energy without entropy =      -83.36467072  energy(sigma->0) =      -83.35241514


--------------------------------------------------------------------------------------------------------




--------------------------------------- Iteration      1(  25)  ---------------------------------------


    POTLOK:  cpu time    0.0353: real time    0.0357
    SETDIJ:  cpu time    0.0106: real time    0.0106
     EDDAV:  cpu time    3.3985: real time    3.4065
       DOS:  cpu time    0.0060: real time    0.0060
    --------------------------------------------
      LOOP:  cpu time    3.4503: real time    3.4588

 eigenvalue-minimisations  :  7872
 total energy-change (2. order) :-0.2212437E-07  (-0.3064576E-06)
 number of electron      92.0000129 magnetization       0.0000000
 augmentation part       23.3043566 magnetization       0.0000000

 Free energy of the ion-electron system (eV)
  ---------------------------------------------------
  alpha Z        PSCENC =       906.21131108
  Ewald energy   TEWEN  =     -9706.50133840
  -Hartree energ DENC   =     -2755.10013377
  -exchange      EXHF   =         0.00000000
  -V(xc)+E(xc)   XCENC  =       464.51484991
  PAW double counting   =     10571.27369609   -11185.89329479
  entropy T*S    EENTRO =         0.01837898
  eigenvalues    EBANDS =      -586.52208680
  atomic energy  EATOM  =     12208.65233032
  Solvation  Ediel_sol  =         0.00000000
  ---------------------------------------------------
  free energy    TOTEN  =       -83.34628737 eV

  energy without entropy =      -83.36466635  energy(sigma->0) =      -83.35241370


[...]
  0.000  -0.000   0.001   0.000  -0.000   0.001  -0.000   0.000
  0.000  -0.000  -0.000  -0.003  -0.000   0.000  -0.000   0.000
  0.000  -0.000  -0.000   0.000   0.001   0.000  -0.000   0.001
  0.000  -0.000  -0.004   0.000   0.000  -0.001  -0.000  -0.000
  0.000  -0.000  -0.000  -0.000   0.000   0.000   0.000  -0.000
 pseudopotential strength for first ion, spin component:           2
-15.723   0.719   0.000   0.004   0.000   0.000  -0.001   0.000
  0.719  -3.400  -0.000  -0.002  -0.000   0.000   0.001   0.000
  0.000  -0.000 -17.550   0.000   0.000   7.759  -0.000  -0.000
  0.004  -0.002   0.000 -17.550   0.001  -0.000   7.760  -0.001
  0.000  -0.000   0.000   0.001 -17.550  -0.000  -0.001   7.759
  0.000   0.000   7.759  -0.000  -0.000   5.164   0.000   0.000
 -0.001   0.001  -0.000   7.760  -0.001   0.000   5.163   0.001
  0.000   0.000  -0.000  -0.001   7.759   0.000   0.001   5.164
  0.000   0.000   0.000   0.000   0.000   0.000   0.000   0.000
  0.000   0.000   0.001   0.000   0.000  -0.000   0.000   0.000
 -0.000  -0.000  -0.000   0.002  -0.000   0.000   0.000   0.000
  0.000   0.000   0.000   0.000   0.001   0.000   0.000  -0.000
  0.000   0.000   0.000   0.000   0.000   0.000   0.000   0.000
 -0.000  -0.000  -0.000  -0.000  -0.001  -0.000  -0.000  -0.000
 -0.000  -0.000  -0.001  -0.000  -0.000   0.000  -0.000  -0.000
  0.000   0.000   0.000  -0.002   0.000  -0.000  -0.000  -0.000
 -0.001  -0.000  -0.000  -0.000  -0.001  -0.000  -0.000   0.000
 -0.000  -0.000  -0.001  -0.000  -0.000  -0.000  -0.000  -0.000
 -0.002   0.000   0.000  -0.020   0.000  -0.000   0.011   0.000
 -0.000   0.000   0.000   0.000  -0.024  -0.000  -0.000   0.014
  0.000  -0.000   0.010   0.000  -0.000  -0.005  -0.000   0.000
 -0.001   0.000  -0.000  -0.018  -0.000   0.000   0.010   0.000
  0.000  -0.000  -0.000   0.000   0.010   0.000  -0.000  -0.005
 -0.000   0.000  -0.025   0.000   0.000   0.014  -0.000  -0.000
 -0.000   0.000  -0.001  -0.000   0.000   0.000   0.000  -0.000
 -0.002   0.000   0.000  -0.019   0.000  -0.000   0.011   0.000
 -0.000   0.000   0.000   0.000  -0.023  -0.000  -0.000   0.013
  0.000  -0.000   0.009   0.000  -0.000  -0.005  -0.000   0.000
 -0.001   0.000  -0.000  -0.018  -0.000   0.000   0.010   0.000
  0.000  -0.000  -0.000   0.000   0.009   0.000  -0.000  -0.005
 -0.000   0.000  -0.024   0.000   0.000   0.013  -0.000  -0.000
 -0.000   0.000  -0.001  -0.000   0.000   0.000   0.000  -0.000
 total augmentation occupancy for first ion, spin component:           1
  1.992  -0.040  -0.000   0.000  -0.000  -0.000  -0.000  -0.000  -0.000  -0.000   0.000  -0.000  -0.000   0.000   0.000   0.000
 -0.040   0.606   0.000   0.001   0.000   0.000  -0.000   0.000   0.000   0.000   0.000   0.000   0.000   0.000   0.000  -0.000
 -0.000   0.000   2.012   0.000  -0.000  -0.020   0.000   0.000  -0.000   0.001  -0.000  -0.000  -0.000   0.000   0.000  -0.000
  0.000   0.001   0.000   2.012   0.000   0.000  -0.020   0.000  -0.000  -0.000   0.001  -0.000  -0.000  -0.000   0.000   0.000
 -0.000   0.000  -0.000   0.000   2.012   0.000   0.000  -0.020  -0.000  -0.000  -0.000   0.001  -0.000  -0.000  -0.000  -0.000
 -0.000   0.000  -0.020   0.000   0.000   0.020   0.000  -0.000   0.000   0.000   0.000   0.000   0.000   0.000   0.000   0.000
 -0.000  -0.000   0.000  -0.020   0.000   0.000   0.020   0.000   0.000   0.000   0.000   0.000   0.000   0.000   0.000   0.000
 -0.000   0.000   0.000   0.000  -0.020  -0.000   0.000   0.020   0.000   0.000   0.000   0.000   0.000   0.000   0.000   0.000
 -0.000   0.000  -0.000  -0.000  -0.000   0.000   0.000   0.000   0.232  -0.001  -0.002  -0.080  -0.001   0.063  -0.000  -0.000
 -0.000   0.000   0.001  -0.000  -0.000   0.000   0.000   0.000  -0.001   0.290  -0.001  -0.000  -0.079  -0.000   0.085  -0.000
  0.000   0.000  -0.000   0.001  -0.000   0.000   0.000   0.000  -0.002  -0.001   0.175  -0.001  -0.001  -0.000  -0.000   0.042
 -0.000   0.000  -0.000  -0.000   0.001   0.000   0.000   0.000  -0.080  -0.000  -0.001   0.289  -0.001  -0.030  -0.000  -0.000
 -0.000   0.000  -0.000  -0.000  -0.000   0.000   0.000   0.000  -0.001  -0.079  -0.001  -0.001   0.233  -0.000  -0.030  -0.000
  0.000   0.000   0.000  -0.000  -0.000   0.000   0.000   0.000   0.063  -0.000  -0.000  -0.030  -0.000   0.018  -0.000  -0.000
  0.000   0.000   0.000   0.000  -0.000   0.000   0.000   0.000  -0.000   0.085  -0.000  -0.000  -0.030  -0.000   0.026  -0.000
  0.000  -0.000  -0.000   0.000  -0.000   0.000   0.000   0.000  -0.000  -0.000   0.042  -0.000  -0.000  -0.000  -0.000   0.011
  0.000   0.000  -0.000   0.000   0.000   0.000   0.000   0.000  -0.030  -0.000  -0.000   0.085  -0.000  -0.011  -0.000  -0.000
  0.000   0.000  -0.000  -0.000   0.000   0.000   0.000   0.000  -0.000  -0.030  -0.000  -0.000   0.064  -0.000  -0.011  -0.000
 -0.000  -0.006   0.000  -0.118   0.000   0.000   0.082   0.000   0.000   0.000  -0.002   0.000   0.000   0.000   0.000  -0.000
 -0.000   0.000  -0.000   0.000  -0.144   0.000   0.000   0.099  -0.003  -0.000   0.000  -0.011   0.000  -0.001  -0.000   0.000
  0.000  -0.000   0.064   0.000  -0.000  -0.044   0.000  -0.000  -0.000   0.001   0.000   0.000  -0.005  -0.000  -0.000   0.000
 -0.000  -0.005  -0.000  -0.106  -0.000  -0.000   0.074  -0.000   0.000   0.000  -0.015   0.000   0.000   0.000   0.000  -0.002
  0.000  -0.000  -0.000   0.000   0.064  -0.000   0.000  -0.044  -0.005   0.000   0.000   0.001  -0.000  -0.001   0.000   0.000
 -0.000   0.000  -0.144   0.000  -0.000   0.099   0.000   0.000   0.000  -0.011   0.000  -0.000  -0.003   0.000  -0.002   0.000
 -0.000  -0.000  -0.000  -0.000   0.000  -0.000   0.000   0.000   0.000  -0.000  -0.000   0.000  -0.000   0.000  -0.000  -0.000
  0.000   0.003  -0.000   0.120  -0.000  -0.000  -0.075  -0.000  -0.000  -0.000   0.003  -0.000  -0.000  -0.000  -0.000   0.000
  0.000  -0.000   0.000  -0.000   0.147  -0.000  -0.000  -0.092   0.002   0.000   0.000   0.005  -0.000   0.001   0.000   0.000
 -0.000  -0.000  -0.065  -0.000  -0.000   0.041  -0.000   0.000   0.000   0.000  -0.000  -0.000   0.003   0.000   0.000  -0.000
  0.000   0.003   0.000   0.108   0.000  -0.000  -0.068  -0.000   0.000  -0.000   0.008  -0.000   0.000   0.000  -0.000   0.001
 -0.000  -0.000  -0.000  -0.000  -0.065   0.000  -0.000   0.041   0.003  -0.000  -0.000   0.000   0.000   0.000  -0.000  -0.000
  0.000  -0.000   0.147  -0.000   0.000  -0.092  -0.000  -0.000  -0.000   0.005   0.000   0.000   0.002  -0.000   0.001   0.000
  0.000   0.000   0.000   0.000  -0.000   0.000  -0.000  -0.000  -0.000   0.000   0.000  -0.000   0.000  -0.000   0.000   0.000
 total augmentation occupancy for first ion, spin component:           2
 -0.042  -0.158  -0.000  -0.000  -0.000  -0.000   0.000  -0.000   0.000   0.000   0.000   0.000   0.000  -0.000   0.000   0.000
 -0.158   0.135  -0.000  -0.001  -0.000   0.000   0.001   0.000  -0.000   0.000  -0.003   0.000  -0.000  -0.000  -0.000  -0.001
 -0.000  -0.000  -0.007   0.000   0.000  -0.044  -0.000  -0.000  -0.000  -0.001  -0.000  -0.000  -0.002  -0.000  -0.000  -0.000
 -0.000  -0.001   0.000  -0.008   0.000  -0.000  -0.044  -0.000  -0.000  -0.000  -0.003  -0.000  -0.000  -0.000  -0.000  -0.000
 -0.000  -0.000   0.000   0.000  -0.007  -0.000  -0.000  -0.044  -0.002  -0.000  -0.000  -0.001  -0.000  -0.000   0.000  -0.000
 -0.000   0.000  -0.044  -0.000  -0.000   0.004  -0.000  -0.000   0.000   0.001   0.000   0.000   0.001   0.000   0.000   0.000
  0.000   0.001  -0.000  -0.044  -0.000  -0.000   0.003  -0.000   0.000   0.000   0.003   0.000   0.000   0.000   0.000   0.001
 -0.000   0.000  -0.000  -0.000  -0.044  -0.000  -0.000   0.004   0.001   0.000   0.000   0.001   0.000   0.000   0.000   0.000
  0.000  -0.000  -0.000  -0.000  -0.002   0.000   0.000   0.001   0.059  -0.000  -0.000   0.008  -0.000   0.014  -0.000  -0.000
  0.000   0.000  -0.001  -0.000  -0.000   0.001   0.000   0.000  -0.000   0.053  -0.000  -0.000   0.008  -0.000   0.013  -0.000
  0.000  -0.003  -0.000  -0.003  -0.000   0.000   0.003   0.000  -0.000  -0.000   0.060  -0.000  -0.000  -0.000  -0.000   0.013
  0.000   0.000  -0.000  -0.000  -0.001   0.000   0.000   0.001   0.008  -0.000  -0.000   0.053  -0.000   0.000  -0.000  -0.000
  0.000  -0.000  -0.002  -0.000  -0.000   0.001   0.000   0.000  -0.000   0.008  -0.000  -0.000   0.060  -0.000   0.000  -0.000
 -0.000  -0.000  -0.000  -0.000  -0.000   0.000   0.000   0.000   0.014  -0.000  -0.000   0.000  -0.000   0.003  -0.000  -0.000
  0.000  -0.000  -0.000  -0.000   0.000   0.000   0.000   0.000  -0.000   0.013  -0.000  -0.000   0.000  -0.000   0.004  -0.000
  0.000  -0.001  -0.000  -0.000  -0.000   0.000   0.001   0.000  -0.000  -0.000   0.013  -0.000  -0.000  -0.000  -0.000   0.003
  0.000  -0.000   0.000  -0.000  -0.000   0.000   0.000   0.000   0.000  -0.000  -0.000   0.013  -0.000  -0.000  -0.000  -0.000
 -0.000  -0.000  -0.000  -0.000  -0.000   0.000   0.000   0.000  -0.000   0.000  -0.000  -0.000   0.014  -0.000  -0.000  -0.000
  0.000  -0.015  -0.000  -0.014  -0.000   0.000   0.023   0.000   0.000   0.000  -0.009   0.000   0.000   0.000   0.000  -0.001
 -0.000  -0.000  -0.000  -0.000  -0.016  -0.000   0.000   0.026  -0.016   0.000   0.000  -0.026   0.000  -0.002   0.000   0.000
  0.000  -0.000   0.006  -0.000  -0.000  -0.010   0.000   0.000   0.000  -0.005   0.000  -0.000  -0.014   0.000  -0.001   0.000
  0.000  -0.012   0.000  -0.013   0.000  -0.000   0.022  -0.000   0.000   0.000  -0.044   0.000   0.000   0.000   0.000  -0.007
  0.000  -0.000  -0.000  -0.000   0.006   0.000   0.000  -0.010  -0.014  -0.000   0.000  -0.005   0.000  -0.002  -0.000   0.000
 -0.000  -0.000  -0.016  -0.000  -0.000   0.026   0.000  -0.000   0.000  -0.026   0.000   0.000  -0.016   0.000  -0.005   0.000
  0.000  -0.000  -0.000  -0.000   0.000   0.000   0.000  -0.000   0.000  -0.000  -0.000   0.000  -0.000   0.000  -0.000  -0.000
 -0.001   0.013  -0.000  -0.000  -0.000  -0.000  -0.009  -0.000  -0.000  -0.000   0.012  -0.000  -0.000  -0.000  -0.000   0.002
  0.000   0.000   0.000   0.000  -0.001  -0.000  -0.000  -0.010   0.018  -0.000  -0.000   0.023  -0.000   0.003  -0.000  -0.000
 -0.000   0.000   0.002   0.000   0.000   0.003  -0.000   0.000  -0.000   0.008  -0.000   0.000   0.014  -0.000   0.001  -0.000
 -0.000   0.011  -0.000   0.001  -0.000  -0.000  -0.010  -0.000  -0.000  -0.000   0.042  -0.000  -0.000  -0.000  -0.000   0.007
 -0.000   0.000   0.000   0.000   0.002   0.000  -0.000   0.003   0.014   0.000  -0.000   0.008  -0.000   0.002   0.000  -0.000
  0.000   0.000  -0.001   0.000   0.000  -0.010  -0.000  -0.000  -0.000   0.023  -0.000  -0.000   0.018  -0.000   0.004  -0.000
 -0.000   0.000   0.000  -0.000  -0.000   0.000  -0.000  -0.000   0.000   0.000   0.000  -0.000  -0.000   0.000   0.000   0.000


------------------------ aborting loop because EDIFF is reached ----------------------------------------


 


 total charge     
 
# of ion       s       p       d       f       tot
--------------------------------------------------
    1        2.083   5.888   0.623   6.714  15.309
    2        2.083   5.888   0.623   6.714  15.309
    3        2.083   5.888   0.623   6.714  15.309
    4        2.083   5.888   0.623   6.714  15.309
    5        1.558   3.406   0.000   0.000   4.964
    6        1.557   3.408   0.000   0.000   4.965
    7        1.558   3.406   0.000   0.000   4.964
    8        1.557   3.408   0.000   0.000   4.965
--------------------------------------------------
tot         14.563  37.179   2.492  26.858  81.092

 


 magnetization (x)
 
# of ion       s       p       d       f       tot
--------------------------------------------------
    1       -0.005  -0.009   0.157   6.613   6.756
    2       -0.005  -0.009   0.157   6.613   6.756
    3        0.005   0.009  -0.157  -6.613  -6.756
    4        0.005   0.009  -0.157  -6.613  -6.756
    5       -0.005  -0.096   0.000   0.000  -0.101
    6        0.000   0.000   0.000   0.000   0.000
    7        0.005   0.096   0.000   0.000   0.101
    8        0.000   0.000   0.000   0.000   0.000
--------------------------------------------------
tot         -0.000   0.000   0.000  -0.000   0.000

 
    CHARGE:  cpu time    0.2240: real time    0.2245
    FORLOC:  cpu time    0.0022: real time    0.0022
    FORNL :  cpu time    2.1036: real time    2.1086
    STRESS:  cpu time    1.7378: real time    1.7420
    FORCOR:  cpu time    0.0369: real time    0.0370
    FORHAR:  cpu time    0.0049: real time    0.0050
    MIXING:  cpu time    0.0030: real time    0.0030
    OFIELD:  cpu time    0.0000: real time    0.0000

  FORCE on cell =-STRESS in cart. coord.  units (eV):
  Direction    XX          YY          ZZ          XY          YZ          ZX
  --------------------------------------------------------------------------------------
  Alpha Z   906.21131   906.21131   906.21131
  Ewald   -3235.50495 -3235.50223 -3235.50576     0.00702     0.00503    -0.00490
  Hartree   918.46142   918.29837   918.33369     0.14211    -0.05293    -0.09531
  E(xc)    -488.33445  -488.33785  -488.35562     0.00292    -0.00170    -0.00294
  Local     844.98792   845.29683   845.08007    -0.27098     0.05724     0.11221
  n-local  -453.05122  -452.91136  -453.22243     0.01444    -0.01859    -0.00048
  augment   192.76405   192.73759   192.69715     0.02066     0.02343     0.04521
  Kinetic  1313.88008  1313.35733  1314.48653     0.00950    -0.18271    -0.00408
  Fock        0.00000     0.00000     0.00000     0.00000     0.00000     0.00000
  -------------------------------------------------------------------------------------
  Total      -0.71704    -0.71882    -0.27507     0.00154    -0.02109    -0.03653
  in kB      -8.75950    -8.78125    -3.36035     0.01887    -0.25762    -0.44625
  external pressure =       -6.97 kB  Pullay stress =        0.00 kB


 VOLUME and BASIS-vectors are now :
 -----------------------------------------------------------------------------
  energy-cutoff  :      500.00
  volume of cell :      131.15
      direct lattice vectors                 reciprocal lattice vectors
     1.796261100 -3.111279100  0.000000000     0.278346409 -0.160711128  0.056814756
     1.796384500  3.111279100  0.000000000     0.278346409  0.160700088  0.028403078
    -1.796103700  1.037187700 11.733336000     0.000000000  0.000000000  0.085227253

  length of vectors
     3.592577289  3.592638990 11.915239004     0.326393484  0.322657677  0.085227253


 FORCES acting on ions
    electron-ion (+dipol)            ewald-force                    non-local-force                 convergence-correction
 -----------------------------------------------------------------------------------------------
   0.978E-04 0.596E-04 -.270E+00   0.283E-04 -.187E-04 0.198E-04   -.256E-03 -.148E-03 0.356E+00   0.398E-04 0.230E-04 -.574E-02
   -.104E-03 -.557E-04 0.270E+00   0.283E-04 -.187E-04 0.198E-04   0.256E-03 0.148E-03 -.356E+00   -.398E-04 -.230E-04 0.574E-02
   0.978E-04 0.596E-04 -.270E+00   0.283E-04 -.187E-04 0.198E-04   -.256E-03 -.148E-03 0.356E+00   0.398E-04 0.230E-04 -.574E-02
   -.104E-03 -.557E-04 0.270E+00   0.283E-04 -.187E-04 0.198E-04   0.256E-03 0.148E-03 -.356E+00   -.398E-04 -.230E-04 0.574E-02
   -.168E-03 0.111E-03 -.118E-03   -.283E-04 0.187E-04 -.198E-04   -.741E-21 -.127E-20 0.169E-20   0.195E-07 -.129E-07 0.139E-07
   -.168E-03 0.111E-03 -.118E-03   -.283E-04 0.187E-04 -.198E-04   -.424E-21 -.143E-20 0.847E-21   0.209E-07 -.138E-07 0.144E-07
   -.168E-03 0.111E-03 -.118E-03   -.283E-04 0.187E-04 -.198E-04   0.318E-21 0.111E-20 0.169E-20   0.195E-07 -.129E-07 0.139E-07
   -.168E-03 0.111E-03 -.118E-03   -.283E-04 0.187E-04 -.198E-04   -.741E-21 -.265E-20 0.847E-21   0.209E-07 -.138E-07 0.144E-07
 -----------------------------------------------------------------------------------------------
   -.686E-03 0.452E-03 -.480E-03   -.252E-13 0.689E-14 -.716E-13   -.159E-20 0.173E-17 0.167E-15   0.200E-07 -.133E-07 0.140E-07
 
 
 POSITION                                       TOTAL-FORCE (eV/Angst)
 -----------------------------------------------------------------------------------
      0.00000      0.00000      0.00000        -0.000116     -0.000067      0.080779
      1.79639      1.03712      2.93333         0.000116      0.000067     -0.080779
      0.00014      2.07423      5.86667        -0.000116     -0.000067      0.080779
      0.00015      0.00007      8.80000         0.000116      0.000067     -0.080779
      1.79633     -1.03708      1.46667        -0.000000      0.000000     -0.000000
      0.00007      0.00004      4.40000        -0.000000      0.000000     -0.000000
      1.79647      1.03715      7.33334        -0.000000      0.000000     -0.000000
      0.00022      2.07427     10.26667         0.000000      0.000000     -0.000000
 -----------------------------------------------------------------------------------
    total drift:                               -0.000686      0.000452     -0.000480


--------------------------------------------------------------------------------------------------------



  FREE ENERGIE OF THE ION-ELECTRON SYSTEM (eV)
  ---------------------------------------------------
  free  energy   TOTEN  =       -83.34628737 eV

  energy  without entropy=      -83.36466635  energy(sigma->0) =      -83.35241370
 


--------------------------------------------------------------------------------------------------------


    POTLOK:  cpu time    0.0460: real time    0.0461


--------------------------------------------------------------------------------------------------------


     LOOP+:  cpu time  129.7612: real time  130.1114
    4ORBIT:  cpu time    0.0000: real time    0.0000
 


 total charge     
 
# of ion       s       p       d       f       tot
--------------------------------------------------
    1        2.083   5.888   0.623   6.714  15.309
    2        2.083   5.888   0.623   6.714  15.309
    3        2.083   5.888   0.623   6.714  15.309
    4        2.083   5.888   0.623   6.714  15.309
    5        1.558   3.406   0.000   0.000   4.964
    6        1.557   3.408   0.000   0.000   4.965
    7        1.558   3.406   0.000   0.000   4.964
    8        1.557   3.408   0.000   0.000   4.965
--------------------------------------------------
tot         14.563  37.179   2.492  26.858  81.092

 


 magnetization (x)
 
# of ion       s       p       d       f       tot
--------------------------------------------------
    1       -0.005  -0.009   0.157   6.613   6.756
    2       -0.005  -0.009   0.157   6.613   6.756
    3        0.005   0.009  -0.157  -6.613  -6.756
    4        0.005   0.009  -0.157  -6.613  -6.756
    5       -0.005  -0.096   0.000   0.000  -0.101
    6        0.000   0.000   0.000   0.000   0.000
    7        0.005   0.096   0.000   0.000   0.101
    8        0.000   0.000   0.000   0.000   0.000
--------------------------------------------------
tot         -0.000   0.000   0.000  -0.000   0.000

 

 total amount of memory used by VASP MPI-rank0    74019. kBytes
=======================================================================

   base      :      30000. kBytes
   nonl-proj :      14134. kBytes
   fftplans  :       1171. kBytes
   grid      :       2828. kBytes
   one-center:        196. kBytes
   wavefun   :      25690. kBytes
 
  
  
 General timing and accounting informations for this job:
 ========================================================
  
                  Total CPU time used (sec):      132.486
                            User time (sec):      132.083
                          System time (sec):        0.403
                         Elapsed time (sec):      133.318
  
                   Maximum memory used (kb):      100920.
                   Average memory used (kb):           0.
  
                          Minor page faults:        31650
                          Major page faults:            0
                 Voluntary context switches:         1479
