       N       E                     dE             d eps       ncg     rms          rms(c)
DAV:   1     0.896426840770E+02    0.89643E+02   -0.90993E+03 22174   0.188E+03
DAV:   2    -0.137483126937E+02   -0.10339E+03   -0.96611E+02 21994   0.286E+02
DAV:   3    -0.161927178934E+02   -0.24444E+01   -0.23609E+01 24862   0.638E+01
DAV:   4    -0.162260949838E+02   -0.33377E-01   -0.33371E-01 30778   0.586E+00
DAV:   5    -0.162265196651E+02   -0.42468E-03   -0.42480E-03 26084   0.603E-01    0.145E+01
DAV:   6    -0.142597645827E+02    0.19668E+01   -0.16523E+01 22954   0.841E+01    0.788E+00
DAV:   7    -0.139206641033E+02    0.33910E+00   -0.23036E+00 23794   0.300E+01    0.475E+00
DAV:   8    -0.140782892063E+02   -0.15763E+00   -0.14499E-01 29766   0.630E+00    0.221E+00
DAV:   9    -0.140285417505E+02    0.49747E-01   -0.43446E-02 31006   0.325E+00    0.253E+00
DAV:  10    -0.140247755986E+02    0.37662E-02   -0.61862E-04 26208   0.278E-01    0.264E+00
DAV:  11    -0.140686867518E+02   -0.43911E-01   -0.27779E-02 26866   0.272E+00    0.626E-01
DAV:  12    -0.140705163861E+02   -0.18296E-02   -0.10975E-03 32764   0.451E-01    0.281E-01
DAV:  13    -0.140709448752E+02   -0.42849E-03   -0.47764E-04 29244   0.355E-01    0.250E-02
DAV:  14    -0.140709454577E+02   -0.58246E-06   -0.12226E-05 23200   0.379E-02    0.119E-02
DAV:  15    -0.140709440569E+02    0.14008E-05   -0.14941E-06 25658   0.152E-02    0.471E-03
DAV:  16    -0.140709425975E+02    0.14594E-05   -0.16963E-07 18860   0.582E-03    0.148E-03
DAV:  17    -0.140709418343E+02    0.76318E-06   -0.46683E-08 11588   0.252E-03    0.388E-04
DAV:  18    -0.140709419817E+02   -0.14736E-06   -0.12569E-08 11300   0.170E-03    0.133E-04
DAV:  19    -0.140709420228E+02   -0.41073E-07   -0.32101E-09 11198   0.486E-04
   1 F= -.14070942E+02 E0= -.14070942E+02  d E =0.000000E+00  mag=     3.1794
