unknown system                          
   1.00000000000000     
     0.000000    2.840052    0.000000
     0.000000    0.000000   -2.840052
    -2.840052    0.000000    0.000000
   Fe
     2
Direct
  0.500000  0.500000  0.500000
  0.000000  0.000000  0.000000
 
   48   48   48
 0.11298507752E+04 0.20294674349E+04 0.44814102672E+03 0.32411329347E+03 0.48520822470E+03
 0.49611196133E+03 0.40426188558E+03 0.29322230484E+03 0.20070996492E+03 0.13403657201E+03
 0.89160758697E+02 0.59926359785E+02 0.41134186867E+02 0.29077581145E+02 0.21297999647E+02
 0.16223234394E+02 0.12862359388E+02 0.10551575560E+02 0.90497970078E+01 0.79856409736E+01
 0.72571865951E+01 0.67765143264E+01 0.64770814026E+01 0.63141762626E+01 0.62625739968E+01
 0.63141762626E+01 0.64770814026E+01 0.67765143264E+01 0.72571865951E+01 0.79856409736E+01
 0.90497970078E+01 0.10551575560E+02 0.12862359388E+02 0.16223234394E+02 0.21297999647E+02
 0.29077581145E+02 0.41134186867E+02 0.59926359785E+02 0.89160758697E+02 0.13403657201E+03
 0.20070996492E+03 0.29322230484E+03 0.40426188558E+03 0.49611196133E+03 0.48520822470E+03
 0.32411329347E+03 0.44814102672E+03 0.20294674349E+04 0.20294674349E+04 0.11645943686E+04
 0.28374551502E+03 0.32356988161E+03 0.47773408542E+03 0.48024157744E+03 0.38972899694E+03
 0.28295265260E+03 0.19420874647E+03 0.13011661557E+03 0.86839685041E+02 0.58554263976E+02
 0.40316476234E+02 0.28583338066E+02 0.20994201324E+02 0.16032652058E+02 0.12740082223E+02
 0.10474418945E+02 0.89961939857E+01 0.79486333317E+01 0.72312789231E+01 0.67576663361E+01
 0.64624424273E+01 0.63017361452E+01 0.62508133306E+01 0.63017361452E+01 0.64624424273E+01
 0.67576663361E+01 0.72312789231E+01 0.79486333317E+01 0.89961939857E+01 0.10474418945E+02
 0.12740082223E+02 0.16032652058E+02 0.20994201324E+02 0.28583338066E+02 0.40316476234E+02
 0.58554263976E+02 0.86839685041E+02 0.13011661557E+03 0.19420874647E+03 0.28295265260E+03
 0.38972899694E+03 0.48024157744E+03 0.47773408542E+03 0.32356988161E+03 0.28374551502E+03
 0.11645943686E+04 0.44814102672E+03 0.28374551502E+03 0.21531566208E+03 0.36308087601E+03
 0.46154157253E+03 0.43842874457E+03 0.35087633456E+03 0.25517696275E+03 0.17642821482E+03
 0.11928503135E+03 0.80367978062E+02 0.54698230821E+02 0.38003627332E+02 0.27177267571E+02
 0.20125557115E+02 0.15484967210E+02 0.12164302519E+02 0.10250455908E+02 0.88405086239E+01
 0.78410456982E+01 0.71558701081E+01 0.67027350085E+01 0.64197284170E+01 0.62654087875E+01
 0.62164602370E+01 0.62654087875E+01 0.64197284170E+01 0.67027350085E+01 0.71558701081E+01
 0.78410456982E+01 0.88405086239E+01 0.10250455908E+02 0.12164302519E+02 0.15484967210E+02
 0.20125557115E+02 0.27177267571E+02 0.38003627332E+02 0.54698230821E+02 0.80367978062E+02
 0.11928503135E+03 0.17642821482E+03 0.25517696275E+03 0.35087633456E+03 0.43842874457E+03
 0.46154157253E+03 0.36308087601E+03 0.21531566208E+03 0.28374551502E+03 0.32411329347E+03
 0.32356988161E+03 0.36308087601E+03 0.42447686737E+03 0.43430354062E+03 0.38092396005E+03
 0.29818064502E+03 0.21705865401E+03 0.15159415370E+03 0.10388429635E+03 0.71014533527E+02
 0.49043858326E+02 0.34567319922E+02 0.25066452808E+02 0.18807476232E+02 0.14646478382E+02
 0.11672484372E+02 0.99009458877E+01 0.85972700426E+01 0.76726422585E+01 0.70375607235E+01
 0.66163406097E+01 0.63524026292E+01 0.62080644883E+01 0.61622039577E+01 0.62080644883E+01
 0.63524026292E+01 0.66163406097E+01 0.70375607235E+01 0.76726422585E+01 0.85972700426E+01
 0.99009458877E+01 0.11672484372E+02 0.14646478382E+02 0.18807476232E+02 0.25066452808E+02
 0.34567319922E+02 0.49043858326E+02 0.71014533527E+02 0.10388429635E+03 0.15159415370E+03
 0.21705865401E+03 0.29818064502E+03 0.38092396005E+03 0.43430354062E+03 0.42447686737E+03
 0.36308087601E+03 0.32356988161E+03 0.48520822470E+03 0.47773408542E+03 0.46154157253E+03
 0.43430354062E+03 0.38465253219E+03 0.31550289991E+03 0.24167308716E+03 0.17610992947E+03
 0.12443731849E+03 0.86677884228E+02 0.60341416249E+02 0.42465138082E+02 0.30500127537E+02
 0.22527279266E+02 0.17200769941E+02 0.13612060319E+02 0.11048659135E+02 0.94574247669E+01
 0.82880891682E+01 0.74580176350E+01 0.68862878802E+01 0.65055032231E+01 0.62657796240E+01
 0.61341432933E+01 0.60922174528E+01 0.61341432933E+01 0.62657796240E+01 0.65055032231E+01
 0.68862878802E+01 0.74580176350E+01 0.82880891682E+01 0.94574247669E+01 0.11048659135E+02
 0.13612060319E+02 0.17200769941E+02 0.22527279266E+02 0.30500127537E+02 0.42465138082E+02
 0.60341416249E+02 0.86677884228E+02 0.12443731849E+03 0.17610992947E+03 0.24167308716E+03
 0.31550289991E+03 0.38465253219E+03 0.43430354062E+03 0.46154157253E+03 0.47773408542E+03
 0.49611196133E+03 0.48024157744E+03 0.43842874457E+03 0.38092396005E+03 0.31550289991E+03
 0.24907675059E+03 0.18833781646E+03 0.13774817414E+03 0.98624921962E+02 0.69964586259E+02
 0.49732019195E+02 0.35779275814E+02 0.26280644402E+02 0.19843598948E+02 0.15472565558E+02
 0.12481637472E+02 0.10344957784E+02 0.89568365702E+01 0.79383966552E+01 0.72144822169E+01
 0.67139735267E+01 0.63787676087E+01 0.61664278333E+01 0.60491997138E+01 0.60117455223E+01
 0.60491997138E+01 0.61664278333E+01 0.63787676087E+01 0.67139735267E+01 0.72144822169E+01
 0.79383966552E+01 0.89568365702E+01 0.10344957784E+02 0.12481637472E+02 0.15472565558E+02
 0.19843598948E+02 0.26280644402E+02 0.35779275814E+02 0.49732019195E+02 0.69964586259E+02
 0.98624921962E+02 0.13774817414E+03 0.18833781646E+03 0.24907675059E+03 0.31550289991E+03
 0.38092396005E+03 0.43842874457E+03 0.48024157744E+03 0.40426188558E+03 0.38972899694E+03
 0.35087633456E+03 0.29818064502E+03 0.24167308716E+03 0.18833781646E+03 0.14218846955E+03
 0.10486224390E+03 0.76242871299E+02 0.55179172567E+02 0.40128398307E+02 0.29585583877E+02
 0.22283551745E+02 0.17247911547E+02 0.13768569547E+02 0.11165959289E+02 0.96137219981E+01
 0.84363577315E+01 0.75739591332E+01 0.69597829112E+01 0.65330464818E+01 0.62452273246E+01
 0.60614875325E+01 0.59593716730E+01 0.59266199426E+01 0.59593716730E+01 0.60614875325E+01
 0.62452273246E+01 0.65330464818E+01 0.69597829112E+01 0.75739591332E+01 0.84363577315E+01
 0.96137219981E+01 0.11165959289E+02 0.13768569547E+02 0.17247911547E+02 0.22283551745E+02
 0.29585583877E+02 0.40128398307E+02 0.55179172567E+02 0.76242871299E+02 0.10486224390E+03
 0.14218846955E+03 0.18833781646E+03 0.24167308716E+03 0.29818064502E+03 0.35087633456E+03
 0.38972899694E+03 0.29322230484E+03 0.28295265260E+03 0.25517696275E+03 0.21705865401E+03
 0.17610992947E+03 0.13774817414E+03 0.10486224390E+03 0.78384823337E+02 0.58035735381E+02
 0.42931213475E+02 0.31998993902E+02 0.24220924281E+02 0.18742387765E+02 0.14897462527E+02
 0.12193439867E+02 0.10190756608E+02 0.89011796442E+01 0.79289443977E+01 0.72178569791E+01
 0.67100939761E+01 0.63551079313E+01 0.61136151226E+01 0.59580114485E+01 0.58708502873E+01
 0.58427688637E+01 0.58708502873E+01 0.59580114485E+01 0.61136151226E+01 0.63551079313E+01
 0.67100939761E+01 0.72178569791E+01 0.79289443977E+01 0.89011796442E+01 0.10190756608E+02
 0.12193439867E+02 0.14897462527E+02 0.18742387765E+02 0.24220924281E+02 0.31998993902E+02
 0.42931213475E+02 0.58035735381E+02 0.78384823337E+02 0.10486224390E+03 0.13774817414E+03
 0.17610992947E+03 0.21705865401E+03 0.25517696275E+03 0.28295265260E+03 0.20070996492E+03
 0.19420874647E+03 0.17642821482E+03 0.15159415370E+03 0.12443731849E+03 0.98624921962E+02
 0.76242871299E+02 0.58035735381E+02 0.43887622296E+02 0.33252222121E+02 0.25443804670E+02
 0.19800710591E+02 0.15759154225E+02 0.12873358497E+02 0.10638459302E+02 0.92880111375E+01
 0.82431746932E+01 0.74603143383E+01 0.68883996322E+01 0.64785873128E+01 0.61899389304E+01
 0.59915881313E+01 0.58624148983E+01 0.57894156297E+01 0.57657788840E+01 0.57894156297E+01
 0.58624148983E+01 0.59915881313E+01 0.61899389304E+01 0.64785873128E+01 0.68883996322E+01
 0.74603143383E+01 0.82431746932E+01 0.92880111375E+01 0.10638459302E+02 0.12873358497E+02
 0.15759154225E+02 0.19800710591E+02 0.25443804670E+02 0.33252222121E+02 0.43887622296E+02
 0.58035735381E+02 0.76242871299E+02 0.98624921962E+02 0.12443731849E+03 0.15159415370E+03
 0.17642821482E+03 0.19420874647E+03 0.13403657201E+03 0.13011661557E+03 0.11928503135E+03
 0.10388429635E+03 0.86677884228E+02 0.69964586259E+02 0.55179172567E+02 0.42931213475E+02
 0.33252222121E+02 0.25858059969E+02 0.20341691424E+02 0.16289814290E+02 0.13338704521E+02
 0.11195785499E+02 0.95710635525E+01 0.84900651605E+01 0.76633266376E+01 0.70476252249E+01
 0.65981608734E+01 0.62747105646E+01 0.60449414375E+01 0.58852744698E+01 0.57800861006E+01
 0.57200802130E+01 0.57005486947E+01 0.57200802130E+01 0.57800861006E+01 0.58852744698E+01
 0.60449414375E+01 0.62747105646E+01 0.65981608734E+01 0.70476252249E+01 0.76633266376E+01
 0.84900651605E+01 0.95710635525E+01 0.11195785499E+02 0.13338704521E+02 0.16289814290E+02
 0.20341691424E+02 0.25858059969E+02 0.33252222121E+02 0.42931213475E+02 0.55179172567E+02
 0.69964586259E+02 0.86677884228E+02 0.10388429635E+03 0.11928503135E+03 0.13011661557E+03
 0.89160758697E+02 0.86839685041E+02 0.80367978062E+02 0.71014533527E+02 0.60341416249E+02
 0.49732019195E+02 0.40128398307E+02 0.31998993902E+02 0.25443804670E+02 0.20341691424E+02
 0.16467097969E+02 0.13571345642E+02 0.11427501237E+02 0.97476371387E+01 0.86590596470E+01
 0.78131515477E+01 0.71733845654E+01 0.66996863528E+01 0.63540377069E+01 0.61041261263E+01
 0.59249971243E+01 0.57990826245E+01 0.57151663519E+01 0.56668534998E+01 0.56510485949E+01
 0.56668534998E+01 0.57151663519E+01 0.57990826245E+01 0.59249971243E+01 0.61041261263E+01
 0.63540377069E+01 0.66996863528E+01 0.71733845654E+01 0.78131515477E+01 0.86590596470E+01
 0.97476371387E+01 0.11427501237E+02 0.13571345642E+02 0.16467097969E+02 0.20341691424E+02
 0.25443804670E+02 0.31998993902E+02 0.40128398307E+02 0.49732019195E+02 0.60341416249E+02
 0.71014533527E+02 0.80367978062E+02 0.86839685041E+02 0.59926359785E+02 0.58554263976E+02
 0.54698230821E+02 0.49043858326E+02 0.42465138082E+02 0.35779275814E+02 0.29585583877E+02
 0.24220924281E+02 0.19800710591E+02 0.16289814290E+02 0.13571345642E+02 0.11503849025E+02
 0.98299434474E+01 0.87539660718E+01 0.79076683713E+01 0.72599005329E+01 0.67751347902E+01
 0.64182587777E+01 0.61580483945E+01 0.59691415890E+01 0.58326489460E+01 0.57357232965E+01
 0.56704749318E+01 0.56326149169E+01 0.56201771801E+01 0.56326149169E+01 0.56704749318E+01
 0.57357232965E+01 0.58326489460E+01 0.59691415890E+01 0.61580483945E+01 0.64182587777E+01
 0.67751347902E+01 0.72599005329E+01 0.79076683713E+01 0.87539660718E+01 0.98299434474E+01
 0.11503849025E+02 0.13571345642E+02 0.16289814290E+02 0.19800710591E+02 0.24220924281E+02
 0.29585583877E+02 0.35779275814E+02 0.42465138082E+02 0.49043858326E+02 0.54698230821E+02
 0.58554263976E+02 0.41134186867E+02 0.40316476234E+02 0.38003627332E+02 0.34567319922E+02
 0.30500127537E+02 0.26280644402E+02 0.22283551745E+02 0.18742387765E+02 0.15759154225E+02
 0.13338704521E+02 0.11427501237E+02 0.98299434474E+01 0.87840756654E+01 0.79522019609E+01
 0.73087514957E+01 0.68229342659E+01 0.64630837585E+01 0.61999030134E+01 0.60085164186E+01
 0.58694113435E+01 0.57684725813E+01 0.56963652674E+01 0.56475323962E+01 0.56190658297E+01
 0.56096908786E+01 0.56190658297E+01 0.56475323962E+01 0.56963652674E+01 0.57684725813E+01
 0.58694113435E+01 0.60085164186E+01 0.61999030134E+01 0.64630837585E+01 0.68229342659E+01
 0.73087514957E+01 0.79522019609E+01 0.87840756654E+01 0.98299434474E+01 0.11427501237E+02
 0.13338704521E+02 0.15759154225E+02 0.18742387765E+02 0.22283551745E+02 0.26280644402E+02
 0.30500127537E+02 0.34567319922E+02 0.38003627332E+02 0.40316476234E+02 0.29077581145E+02
 0.28583338066E+02 0.27177267571E+02 0.25066452808E+02 0.22527279266E+02 0.19843598948E+02
 0.17247911547E+02 0.14897462527E+02 0.12873358497E+02 0.11195785499E+02 0.97476371387E+01
 0.87539660718E+01 0.79522019609E+01 0.73243110576E+01 0.68455222405E+01 0.64886278801E+01
 0.62272304427E+01 0.60378956132E+01 0.59013207958E+01 0.58027023993E+01 0.57315067143E+01
 0.56808436780E+01 0.56466312400E+01 0.56267260667E+01 0.56201771801E+01 0.56267260667E+01
 0.56466312400E+01 0.56808436780E+01 0.57315067143E+01 0.58027023993E+01 0.59013207958E+01
 0.60378956132E+01 0.62272304427E+01 0.64886278801E+01 0.68455222405E+01 0.73243110576E+01
 0.79522019609E+01 0.87539660718E+01 0.97476371387E+01 0.11195785499E+02 0.12873358497E+02
 0.14897462527E+02 0.17247911547E+02 0.19843598948E+02 0.22527279266E+02 0.25066452808E+02
 0.27177267571E+02 0.28583338066E+02 0.21297999647E+02 0.20994201324E+02 0.20125557115E+02
 0.18807476232E+02 0.17200769941E+02 0.15472565558E+02 0.13768569547E+02 0.12193439867E+02
 0.10638459302E+02 0.95710635525E+01 0.86590596470E+01 0.79076683713E+01 0.73087514957E+01
 0.68455222405E+01 0.64968042951E+01 0.62404030580E+01 0.60554629764E+01 0.59238863772E+01
 0.58309865625E+01 0.57655716438E+01 0.57196415132E+01 0.56878563268E+01 0.56669132877E+01
 0.56549477251E+01 0.56510485949E+01 0.56549477251E+01 0.56669132877E+01 0.56878563268E+01
 0.57196415132E+01 0.57655716438E+01 0.58309865625E+01 0.59238863772E+01 0.60554629764E+01
 0.62404030580E+01 0.64968042951E+01 0.68455222405E+01 0.73087514957E+01 0.79076683713E+01
 0.86590596470E+01 0.95710635525E+01 0.10638459302E+02 0.12193439867E+02 0.13768569547E+02
 0.15472565558E+02 0.17200769941E+02 0.18807476232E+02 0.20125557115E+02 0.20994201324E+02
 0.16223234394E+02 0.16032652058E+02 0.15484967210E+02 0.14646478382E+02 0.13612060319E+02
 0.12481637472E+02 0.11165959289E+02 0.10190756608E+02 0.92880111375E+01 0.84900651605E+01
 0.78131515477E+01 0.72599005329E+01 0.68229342659E+01 0.64886278801E+01 0.62404030580E+01
 0.60612406984E+01 0.59353558512E+01 0.58491344217E+01 0.57914979194E+01 0.57538711777E+01
 0.57299092994E+01 0.57151131449E+01 0.57064337761E+01 0.57019348189E+01 0.57005486947E+01
 0.57019348189E+01 0.57064337761E+01 0.57151131449E+01 0.57299092994E+01 0.57538711777E+01
 0.57914979194E+01 0.58491344217E+01 0.59353558512E+01 0.60612406984E+01 0.62404030580E+01
 0.64886278801E+01 0.68229342659E+01 0.72599005329E+01 0.78131515477E+01 0.84900651605E+01
 0.92880111375E+01 0.10190756608E+02 0.11165959289E+02 0.12481637472E+02 0.13612060319E+02
 0.14646478382E+02 0.15484967210E+02 0.16032652058E+02 0.12862359388E+02 0.12740082223E+02
 0.12164302519E+02 0.11672484372E+02 0.11048659135E+02 0.10344957784E+02 0.96137219981E+01
 0.89011796442E+01 0.82431746932E+01 0.76633266376E+01 0.71733845654E+01 0.67751347902E+01
 0.64630837585E+01 0.62272304427E+01 0.60554629764E+01 0.59353558512E+01 0.58553352158E+01
 0.58052964805E+01 0.57768104392E+01 0.57630639366E+01 0.57586676548E+01 0.57594369661E+01
 0.57622161973E+01 0.57647763048E+01 0.57657788840E+01 0.57647763048E+01 0.57622161973E+01
 0.57594369661E+01 0.57586676548E+01 0.57630639366E+01 0.57768104392E+01 0.58052964805E+01
 0.58553352158E+01 0.59353558512E+01 0.60554629764E+01 0.62272304427E+01 0.64630837585E+01
 0.67751347902E+01 0.71733845654E+01 0.76633266376E+01 0.82431746932E+01 0.89011796442E+01
 0.96137219981E+01 0.10344957784E+02 0.11048659135E+02 0.11672484372E+02 0.12164302519E+02
 0.12740082223E+02 0.10551575560E+02 0.10474418945E+02 0.10250455908E+02 0.99009458877E+01
 0.94574247669E+01 0.89568365702E+01 0.84363577315E+01 0.79289443977E+01 0.74603143383E+01
 0.70476252249E+01 0.66996863528E+01 0.64182587777E+01 0.61999030134E+01 0.60378956132E+01
 0.59238863772E+01 0.58491344217E+01 0.58052964805E+01 0.57848283851E+01 0.57811056693E+01
 0.57883830588E+01 0.58017036934E+01 0.58168418454E+01 0.58303224653E+01 0.58395158819E+01
 0.58427688637E+01 0.58395158819E+01 0.58303224653E+01 0.58168418454E+01 0.58017036934E+01
 0.57883830588E+01 0.57811056693E+01 0.57848283851E+01 0.58052964805E+01 0.58491344217E+01
 0.59238863772E+01 0.60378956132E+01 0.61999030134E+01 0.64182587777E+01 0.66996863528E+01
 0.70476252249E+01 0.74603143383E+01 0.79289443977E+01 0.84363577315E+01 0.89568365702E+01
 0.94574247669E+01 0.99009458877E+01 0.10250455908E+02 0.10474418945E+02 0.90497970078E+01
 0.89961939857E+01 0.88405086239E+01 0.85972700426E+01 0.82880891682E+01 0.79383966552E+01
 0.75739591332E+01 0.72178569791E+01 0.68883996322E+01 0.65981608734E+01 0.63540377069E+01
 0.61580483945E+01 0.60085164186E+01 0.59013207958E+01 0.58309865625E+01 0.57914979194E+01
 0.57768104392E+01 0.57811056693E+01 0.57988708194E+01 0.58249008890E+01 0.58543126744E+01
 0.58826320619E+01 0.59059739619E+01 0.59212893495E+01 0.59266199426E+01 0.59212893495E+01
 0.59059739619E+01 0.58826320619E+01 0.58543126744E+01 0.58249008890E+01 0.57988708194E+01
 0.57811056693E+01 0.57768104392E+01 0.57914979194E+01 0.58309865625E+01 0.59013207958E+01
 0.60085164186E+01 0.61580483945E+01 0.63540377069E+01 0.65981608734E+01 0.68883996322E+01
 0.72178569791E+01 0.75739591332E+01 0.79383966552E+01 0.82880891682E+01 0.85972700426E+01
 0.88405086239E+01 0.89961939857E+01 0.79856409736E+01 0.79486333317E+01 0.78410456982E+01
 0.76726422585E+01 0.74580176350E+01 0.72144822169E+01 0.69597829112E+01 0.67100939761E+01
 0.64785873128E+01 0.62747105646E+01 0.61041261263E+01 0.59691415890E+01 0.58694113435E+01
 0.58027023993E+01 0.57655716438E+01 0.57538711777E+01 0.57630639366E+01 0.57883830588E+01
 0.58249008890E+01 0.58675852196E+01 0.59114109240E+01 0.59515668073E+01 0.59837571313E+01
 0.60045562001E+01 0.60117455223E+01 0.60045562001E+01 0.59837571313E+01 0.59515668073E+01
 0.59114109240E+01 0.58675852196E+01 0.58249008890E+01 0.57883830588E+01 0.57630639366E+01
 0.57538711777E+01 0.57655716438E+01 0.58027023993E+01 0.58694113435E+01 0.59691415890E+01
 0.61041261263E+01 0.62747105646E+01 0.64785873128E+01 0.67100939761E+01 0.69597829112E+01
 0.72144822169E+01 0.74580176350E+01 0.76726422585E+01 0.78410456982E+01 0.79486333317E+01
 0.72571865951E+01 0.72312789231E+01 0.71558701081E+01 0.70375607235E+01 0.68862878802E+01
 0.67139735267E+01 0.65330464818E+01 0.63551079313E+01 0.61899389304E+01 0.60449414375E+01
 0.59249971243E+01 0.58326489460E+01 0.57684725813E+01 0.57315067143E+01 0.57196415132E+01
 0.57299092994E+01 0.57586676548E+01 0.58017036934E+01 0.58543126744E+01 0.59114109240E+01
 0.59677313035E+01 0.60181219436E+01 0.60579324722E+01 0.60834366854E+01 0.60922174528E+01
 0.60834366854E+01 0.60579324722E+01 0.60181219436E+01 0.59677313035E+01 0.59114109240E+01
 0.58543126744E+01 0.58017036934E+01 0.57586676548E+01 0.57299092994E+01 0.57196415132E+01
 0.57315067143E+01 0.57684725813E+01 0.58326489460E+01 0.59249971243E+01 0.60449414375E+01
 0.61899389304E+01 0.63551079313E+01 0.65330464818E+01 0.67139735267E+01 0.68862878802E+01
 0.70375607235E+01 0.71558701081E+01 0.72312789231E+01 0.67765143264E+01 0.67576663361E+01
 0.67027350085E+01 0.66163406097E+01 0.65055032231E+01 0.63787676087E+01 0.62452273246E+01
 0.61136151226E+01 0.59915881313E+01 0.58852744698E+01 0.57990826245E+01 0.57357232965E+01
 0.56963652674E+01 0.56808436780E+01 0.56878563268E+01 0.57151131449E+01 0.57594369661E+01
 0.58168418454E+01 0.58826320619E+01 0.59515668073E+01 0.60181219436E+01 0.60768542110E+01
 0.61228413273E+01 0.61521422170E+01 0.61622039577E+01 0.61521422170E+01 0.61228413273E+01
 0.60768542110E+01 0.60181219436E+01 0.59515668073E+01 0.58826320619E+01 0.58168418454E+01
 0.57594369661E+01 0.57151131449E+01 0.56878563268E+01 0.56808436780E+01 0.56963652674E+01
 0.57357232965E+01 0.57990826245E+01 0.58852744698E+01 0.59915881313E+01 0.61136151226E+01
 0.62452273246E+01 0.63787676087E+01 0.65055032231E+01 0.66163406097E+01 0.67027350085E+01
 0.67576663361E+01 0.64770814026E+01 0.64624424273E+01 0.64197284170E+01 0.63524026292E+01
 0.62657796240E+01 0.61664278333E+01 0.60614875325E+01 0.59580114485E+01 0.58624148983E+01
 0.57800861006E+01 0.57151663519E+01 0.56704749318E+01 0.56475323962E+01 0.56466312400E+01
 0.56669132877E+01 0.57064337761E+01 0.57622161973E+01 0.58303224653E+01 0.59059739619E+01
 0.59837571313E+01 0.60579324722E+01 0.61228413273E+01 0.61733768567E+01 0.62054615047E+01
 0.62164602370E+01 0.62054615047E+01 0.61733768567E+01 0.61228413273E+01 0.60579324722E+01
 0.59837571313E+01 0.59059739619E+01 0.58303224653E+01 0.57622161973E+01 0.57064337761E+01
 0.56669132877E+01 0.56466312400E+01 0.56475323962E+01 0.56704749318E+01 0.57151663519E+01
 0.57800861006E+01 0.58624148983E+01 0.59580114485E+01 0.60614875325E+01 0.61664278333E+01
 0.62657796240E+01 0.63524026292E+01 0.64197284170E+01 0.64624424273E+01 0.63141762626E+01
 0.63017361452E+01 0.62654087875E+01 0.62080644883E+01 0.61341432933E+01 0.60491997138E+01
 0.59593716730E+01 0.58708502873E+01 0.57894156297E+01 0.57200802130E+01 0.56668534998E+01
 0.56326149169E+01 0.56190658297E+01 0.56267260667E+01 0.56549477251E+01 0.57019348189E+01
 0.57647763048E+01 0.58395158819E+01 0.59212893495E+01 0.60045562001E+01 0.60834366854E+01
 0.61521422170E+01 0.62054615047E+01 0.62392441300E+01 0.62508133306E+01 0.62392441300E+01
 0.62054615047E+01 0.61521422170E+01 0.60834366854E+01 0.60045562001E+01 0.59212893495E+01
 0.58395158819E+01 0.57647763048E+01 0.57019348189E+01 0.56549477251E+01 0.56267260667E+01
 0.56190658297E+01 0.56326149169E+01 0.56668534998E+01 0.57200802130E+01 0.57894156297E+01
 0.58708502873E+01 0.59593716730E+01 0.60491997138E+01 0.61341432933E+01 0.62080644883E+01
 0.62654087875E+01 0.63017361452E+01 0.62625739968E+01 0.62508133306E+01 0.62164602370E+01
 0.61622039577E+01 0.60922174528E+01 0.60117455223E+01 0.59266199426E+01 0.58427688637E+01
 0.57657788840E+01 0.57005486947E+01 0.56510485949E+01 0.56201771801E+01 0.56096908786E+01
 0.56201771801E+01 0.56510485949E+01 0.57005486947E+01 0.57657788840E+01 0.58427688637E+01
 0.59266199426E+01 0.60117455223E+01 0.60922174528E+01 0.61622039577E+01 0.62164602370E+01
 0.62508133306E+01 0.62625739968E+01 0.62508133306E+01 0.62164602370E+01 0.61622039577E+01
 0.60922174528E+01 0.60117455223E+01 0.59266199426E+01 0.58427688637E+01 0.57657788840E+01
 0.57005486947E+01 0.56510485949E+01 0.56201771801E+01 0.56096908786E+01 0.56201771801E+01
 0.56510485949E+01 0.57005486947E+01 0.57657788840E+01 0.58427688637E+01 0.59266199426E+01
 0.60117455223E+01 0.60922174528E+01 0.61622039577E+01 0.62164602370E+01 0.62508133306E+01
 0.63141762626E+01 0.63017361452E+01 0.62654087875E+01 0.62080644883E+01 0.61341432933E+01
 0.60491997138E+01 0.59593716730E+01 0.58708502873E+01 0.57894156297E+01 0.57200802130E+01
 0.56668534998E+01 0.56326149169E+01 0.56190658297E+01 0.56267260667E+01 0.56549477251E+01
 0.57019348189E+01 0.57647763048E+01 0.58395158819E+01 0.59212893495E+01 0.60045562001E+01
 0.60834366854E+01 0.61521422170E+01 0.62054615047E+01 0.62392441300E+01 0.62508133306E+01
 0.62392441300E+01 0.62054615047E+01 0.61521422170E+01 0.60834366854E+01 0.60045562001E+01
 0.59212893495E+01 0.58395158819E+01 0.57647763048E+01 0.57019348189E+01 0.56549477251E+01
 0.56267260667E+01 0.56190658297E+01 0.56326149169E+01 0.56668534998E+01 0.57200802130E+01
 0.57894156297E+01 0.58708502873E+01 0.59593716730E+01 0.60491997138E+01 0.61341432933E+01
 0.62080644883E+01 0.62654087875E+01 0.63017361452E+01 0.64770814026E+01 0.64624424273E+01
 0.64197284170E+01 0.63524026292E+01 0.62657796240E+01 0.61664278333E+01 0.60614875325E+01
 0.59580114485E+01 0.58624148983E+01 0.57800861006E+01 0.57151663519E+01 0.56704749318E+01
 0.56475323962E+01 0.56466312400E+01 0.56669132877E+01 0.57064337761E+01 0.57622161973E+01
 0.58303224653E+01 0.59059739619E+01 0.59837571313E+01 0.60579324722E+01 0.61228413273E+01
 0.61733768567E+01 0.62054615047E+01 0.62164602370E+01 0.62054615047E+01 0.61733768567E+01
 0.61228413273E+01 0.60579324722E+01 0.59837571313E+01 0.59059739619E+01 0.58303224653E+01
 0.57622161973E+01 0.57064337761E+01 0.56669132877E+01 0.56466312400E+01 0.56475323962E+01
 0.56704749318E+01 0.57151663519E+01 0.57800861006E+01 0.58624148983E+01 0.59580114485E+01
 0.60614875325E+01 0.61664278333E+01 0.62657796240E+01 0.63524026292E+01 0.64197284170E+01
 0.64624424273E+01 0.67765143264E+01 0.67576663361E+01 0.67027350085E+01 0.66163406097E+01
 0.65055032231E+01 0.63787676087E+01 0.62452273246E+01 0.61136151226E+01 0.59915881313E+01
 0.58852744698E+01 0.57990826245E+01 0.57357232965E+01 0.56963652674E+01 0.56808436780E+01
 0.56878563268E+01 0.57151131449E+01 0.57594369661E+01 0.58168418454E+01 0.58826320619E+01
 0.59515668073E+01 0.60181219436E+01 0.60768542110E+01 0.61228413273E+01 0.61521422170E+01
 0.61622039577E+01 0.61521422170E+01 0.61228413273E+01 0.60768542110E+01 0.60181219436E+01
 0.59515668073E+01 0.58826320619E+01 0.58168418454E+01 0.57594369661E+01 0.57151131449E+01
 0.56878563268E+01 0.56808436780E+01 0.56963652674E+01 0.57357232965E+01 0.57990826245E+01
 0.58852744698E+01 0.59915881313E+01 0.61136151226E+01 0.62452273246E+01 0.63787676087E+01
 0.65055032231E+01 0.66163406097E+01 0.67027350085E+01 0.67576663361E+01 0.72571865951E+01
 0.72312789231E+01 0.71558701081E+01 0.70375607235E+01 0.68862878802E+01 0.67139735267E+01
 0.65330464818E+01 0.63551079313E+01 0.61899389304E+01 0.60449414375E+01 0.59249971243E+01
 0.58326489460E+01 0.57684725813E+01 0.57315067143E+01 0.57196415132E+01 0.57299092994E+01
 0.57586676548E+01 0.58017036934E+01 0.58543126744E+01 0.59114109240E+01 0.59677313035E+01
 0.60181219436E+01 0.60579324722E+01 0.60834366854E+01 0.60922174528E+01 0.60834366854E+01
 0.60579324722E+01 0.60181219436E+01 0.59677313035E+01 0.59114109240E+01 0.58543126744E+01
 0.58017036934E+01 0.57586676548E+01 0.57299092994E+01 0.57196415132E+01 0.57315067143E+01
 0.57684725813E+01 0.58326489460E+01 0.59249971243E+01 0.60449414375E+01 0.61899389304E+01
 0.63551079313E+01 0.65330464818E+01 0.67139735267E+01 0.68862878802E+01 0.70375607235E+01
 0.71558701081E+01 0.72312789231E+01 0.79856409736E+01 0.79486333317E+01 0.78410456982E+01
 0.76726422585E+01 0.74580176350E+01 0.72144822169E+01 0.69597829112E+01 0.67100939761E+01
 0.64785873128E+01 0.62747105646E+01 0.61041261263E+01 0.59691415890E+01 0.58694113435E+01
 0.58027023993E+01 0.57655716438E+01 0.57538711777E+01 0.57630639366E+01 0.57883830588E+01
 0.58249008890E+01 0.58675852196E+01 0.59114109240E+01 0.59515668073E+01 0.59837571313E+01
 0.60045562001E+01 0.60117455223E+01 0.60045562001E+01 0.59837571313E+01 0.59515668073E+01
 0.59114109240E+01 0.58675852196E+01 0.58249008890E+01 0.57883830588E+01 0.57630639366E+01
 0.57538711777E+01 0.57655716438E+01 0.58027023993E+01 0.58694113435E+01 0.59691415890E+01
 0.61041261263E+01 0.62747105646E+01 0.64785873128E+01 0.67100939761E+01 0.69597829112E+01
 0.72144822169E+01 0.74580176350E+01 0.76726422585E+01 0.78410456982E+01 0.79486333317E+01
 0.90497970078E+01 0.89961939857E+01 0.88405086239E+01 0.85972700426E+01 0.82880891682E+01
 0.79383966552E+01 0.75739591332E+01 0.72178569791E+01 0.68883996322E+01 0.65981608734E+01
 0.63540377069E+01 0.61580483945E+01 0.60085164186E+01 0.59013207958E+01 0.58309865625E+01
 0.57914979194E+01 0.57768104392E+01 0.57811056693E+01 0.57988708194E+01 0.58249008890E+01
 0.58543126744E+01 0.58826320619E+01 0.59059739619E+01 0.59212893495E+01 0.59266199426E+01
 0.59212893495E+01 0.59059739619E+01 0.58826320619E+01 0.58543126744E+01 0.58249008890E+01
 0.57988708194E+01 0.57811056693E+01 0.57768104392E+01 0.57914979194E+01 0.58309865625E+01
 0.59013207958E+01 0.60085164186E+01 0.61580483945E+01 0.63540377069E+01 0.65981608734E+01
 0.68883996322E+01 0.72178569791E+01 0.75739591332E+01 0.79383966552E+01 0.82880891682E+01
 0.85972700426E+01 0.88405086239E+01 0.89961939857E+01 0.10551575560E+02 0.10474418945E+02
 0.10250455908E+02 0.99009458877E+01 0.94574247669E+01 0.89568365702E+01 0.84363577315E+01
 0.79289443977E+01 0.74603143383E+01 0.70476252249E+01 0.66996863528E+01 0.64182587777E+01
 0.61999030134E+01 0.60378956132E+01 0.59238863772E+01 0.58491344217E+01 0.58052964805E+01
 0.57848283851E+01 0.57811056693E+01 0.57883830588E+01 0.58017036934E+01 0.58168418454E+01
 0.58303224653E+01 0.58395158819E+01 0.58427688637E+01 0.58395158819E+01 0.58303224653E+01
 0.58168418454E+01 0.58017036934E+01 0.57883830588E+01 0.57811056693E+01 0.57848283851E+01
 0.58052964805E+01 0.58491344217E+01 0.59238863772E+01 0.60378956132E+01 0.61999030134E+01
 0.64182587777E+01 0.66996863528E+01 0.70476252249E+01 0.74603143383E+01 0.79289443977E+01
 0.84363577315E+01 0.89568365702E+01 0.94574247669E+01 0.99009458877E+01 0.10250455908E+02
 0.10474418945E+02 0.12862359388E+02 0.12740082223E+02 0.12164302519E+02 0.11672484372E+02
 0.11048659135E+02 0.10344957784E+02 0.96137219981E+01 0.89011796442E+01 0.82431746932E+01
 0.76633266376E+01 0.71733845654E+01 0.67751347902E+01 0.64630837585E+01 0.62272304427E+01
 0.60554629764E+01 0.59353558512E+01 0.58553352158E+01 0.58052964805E+01 0.57768104392E+01
 0.57630639366E+01 0.57586676548E+01 0.57594369661E+01 0.57622161973E+01 0.57647763048E+01
 0.57657788840E+01 0.57647763048E+01 0.57622161973E+01 0.57594369661E+01 0.57586676548E+01
 0.57630639366E+01 0.57768104392E+01 0.58052964805E+01 0.58553352158E+01 0.59353558512E+01
 0.60554629764E+01 0.62272304427E+01 0.64630837585E+01 0.67751347902E+01 0.71733845654E+01
 0.76633266376E+01 0.82431746932E+01 0.89011796442E+01 0.96137219981E+01 0.10344957784E+02
 0.11048659135E+02 0.11672484372E+02 0.12164302519E+02 0.12740082223E+02 0.16223234394E+02
 0.16032652058E+02 0.15484967210E+02 0.14646478382E+02 0.13612060319E+02 0.12481637472E+02
 0.11165959289E+02 0.10190756608E+02 0.92880111375E+01 0.84900651605E+01 0.78131515477E+01
 0.72599005329E+01 0.68229342659E+01 0.64886278801E+01 0.62404030580E+01 0.60612406984E+01
 0.59353558512E+01 0.58491344217E+01 0.57914979194E+01 0.57538711777E+01 0.57299092994E+01
 0.57151131449E+01 0.57064337761E+01 0.57019348189E+01 0.57005486947E+01 0.57019348189E+01
 0.57064337761E+01 0.57151131449E+01 0.57299092994E+01 0.57538711777E+01 0.57914979194E+01
 0.58491344217E+01 0.59353558512E+01 0.60612406984E+01 0.62404030580E+01 0.64886278801E+01
 0.68229342659E+01 0.72599005329E+01 0.78131515477E+01 0.84900651605E+01 0.92880111375E+01
 0.10190756608E+02 0.11165959289E+02 0.12481637472E+02 0.13612060319E+02 0.14646478382E+02