unknown system                          
   1.00000000000000     
     0.000000    2.840052    0.000000
     0.000000    0.000000   -2.840052
    -2.840052    0.000000    0.000000
   Fe
     2
Direct
  0.500000  0.500000  0.500000
  0.000000  0.000000  0.000000
 
   48   48   48
 0.74843727102E+03 0.19707116415E+04 0.40050966205E+03 0.26727564804E+03 0.42549697100E+03
 0.44480471639E+03 0.36555051235E+03 0.26608001524E+03 0.18235225299E+03 0.12176496480E+03
 0.80894207901E+02 0.54225287924E+02 0.37042589538E+02 0.25982327234E+02 0.18804757628E+02
 0.14098171637E+02 0.10947633338E+02 0.87859105210E+01 0.73585123561E+01 0.63488162784E+01
 0.56397425966E+01 0.51603615845E+01 0.48453168785E+01 0.46715590618E+01 0.46124988376E+01
 0.46715590618E+01 0.48453168785E+01 0.51603615845E+01 0.56397425966E+01 0.63488162784E+01
 0.73585123561E+01 0.87859105210E+01 0.10947633338E+02 0.14098171637E+02 0.18804757628E+02
 0.25982327234E+02 0.37042589538E+02 0.54225287924E+02 0.80894207901E+02 0.12176496480E+03
 0.18235225299E+03 0.26608001524E+03 0.36555051235E+03 0.44480471639E+03 0.42549697100E+03
 0.26727564804E+03 0.40050966205E+03 0.19707116415E+04 0.19707116415E+04 0.11483088118E+04
 0.27945810245E+03 0.29581700244E+03 0.43618993076E+03 0.43979854924E+03 0.35731843753E+03
 0.25941412018E+03 0.17791438409E+03 0.11903670319E+03 0.79272334722E+02 0.53272848733E+02
 0.36480295811E+02 0.25647977727E+02 0.18602275783E+02 0.13974302496E+02 0.10869743999E+02
 0.87386330165E+01 0.73269535901E+01 0.63276883678E+01 0.56259627999E+01 0.51507534636E+01
 0.48386451579E+01 0.46661550411E+01 0.46077710285E+01 0.46661550411E+01 0.48386451579E+01
 0.51507534636E+01 0.56259627999E+01 0.63276883678E+01 0.73269535901E+01 0.87386330165E+01
 0.10869743999E+02 0.13974302496E+02 0.18602275783E+02 0.25647977727E+02 0.36480295811E+02
 0.53272848733E+02 0.79272334722E+02 0.11903670319E+03 0.17791438409E+03 0.25941412018E+03
 0.35731843753E+03 0.43979854924E+03 0.43618993076E+03 0.29581700244E+03 0.27945810245E+03
 0.11483088118E+04 0.40050966205E+03 0.27945810245E+03 0.24227487474E+03 0.37450261073E+03
 0.45282897379E+03 0.42081761904E+03 0.33291878555E+03 0.24038278594E+03 0.16533372199E+03
 0.11129857078E+03 0.74657023548E+02 0.50546281505E+02 0.34866677098E+02 0.24682635883E+02
 0.18016515522E+02 0.13613602099E+02 0.10441364062E+02 0.85996262586E+01 0.72347714963E+01
 0.62652607669E+01 0.55855840106E+01 0.51224507664E+01 0.48194914120E+01 0.46504419780E+01
 0.45943808079E+01 0.46504419780E+01 0.48194914120E+01 0.51224507664E+01 0.55855840106E+01
 0.62652607669E+01 0.72347714963E+01 0.85996262586E+01 0.10441364062E+02 0.13613602099E+02
 0.18016515522E+02 0.24682635883E+02 0.34866677098E+02 0.50546281505E+02 0.74657023548E+02
 0.11129857078E+03 0.16533372199E+03 0.24038278594E+03 0.33291878555E+03 0.42081761904E+03
 0.45282897379E+03 0.37450261073E+03 0.24227487474E+03 0.27945810245E+03 0.26727564804E+03
 0.29581700244E+03 0.37450261073E+03 0.44412535724E+03 0.44480488990E+03 0.38199270407E+03
 0.29434127718E+03 0.21181479606E+03 0.14663766366E+03 0.99757829226E+02 0.67719630361E+02
 0.46413293744E+02 0.32395730484E+02 0.23194112537E+02 0.17105058225E+02 0.13047786162E+02
 0.10129698012E+02 0.83778955009E+01 0.70878420677E+01 0.61660133796E+01 0.55212294638E+01
 0.50772873003E+01 0.47888179198E+01 0.46252983073E+01 0.45729316620E+01 0.46252983073E+01
 0.47888179198E+01 0.50772873003E+01 0.55212294638E+01 0.61660133796E+01 0.70878420677E+01
 0.83778955009E+01 0.10129698012E+02 0.13047786162E+02 0.17105058225E+02 0.23194112537E+02
 0.32395730484E+02 0.46413293744E+02 0.67719630361E+02 0.99757829226E+02 0.14663766366E+03
 0.21181479606E+03 0.29434127718E+03 0.38199270407E+03 0.44480488990E+03 0.44412535724E+03
 0.37450261073E+03 0.29581700244E+03 0.42549697100E+03 0.43618993076E+03 0.45282897379E+03
 0.44480488990E+03 0.39812843479E+03 0.32495894438E+03 0.24656888564E+03 0.17792388462E+03
 0.12458141088E+03 0.86043336064E+02 0.59377887769E+02 0.41374118910E+02 0.29346791388E+02
 0.21330988124E+02 0.15954451683E+02 0.12323687696E+02 0.97209545912E+01 0.80879861413E+01
 0.68954670343E+01 0.60362049255E+01 0.54366058146E+01 0.50182982487E+01 0.47487795737E+01
 0.45928515216E+01 0.45451548326E+01 0.45928515216E+01 0.47487795737E+01 0.50182982487E+01
 0.54366058146E+01 0.60362049255E+01 0.68954670343E+01 0.80879861413E+01 0.97209545912E+01
 0.12323687696E+02 0.15954451683E+02 0.21330988124E+02 0.29346791388E+02 0.41374118910E+02
 0.59377887769E+02 0.86043336064E+02 0.12458141088E+03 0.17792388462E+03 0.24656888564E+03
 0.32495894438E+03 0.39812843479E+03 0.44480488990E+03 0.45282897379E+03 0.43618993076E+03
 0.44480471639E+03 0.43979854924E+03 0.42081761904E+03 0.38199270407E+03 0.32495894438E+03
 0.25941966662E+03 0.19646876296E+03 0.14321642737E+03 0.10195040307E+03 0.71790534977E+02
 0.50566161532E+02 0.35959674350E+02 0.26015037543E+02 0.19262526061E+02 0.14659932889E+02
 0.11494283701E+02 0.92353708402E+01 0.77492753480E+01 0.66680292864E+01 0.58849065027E+01
 0.53359907899E+01 0.49497854043E+01 0.47009657402E+01 0.45557206588E+01 0.45120127760E+01
 0.45557206588E+01 0.47009657402E+01 0.49497854043E+01 0.53359907899E+01 0.58849065027E+01
 0.66680292864E+01 0.77492753480E+01 0.92353708402E+01 0.11494283701E+02 0.14659932889E+02
 0.19262526061E+02 0.26015037543E+02 0.35959674350E+02 0.50566161532E+02 0.71790534977E+02
 0.10195040307E+03 0.14321642737E+03 0.19646876296E+03 0.25941966662E+03 0.32495894438E+03
 0.38199270407E+03 0.42081761904E+03 0.43979854924E+03 0.36555051235E+03 0.35731843753E+03
 0.33291878555E+03 0.29434127718E+03 0.24656888564E+03 0.19646876296E+03 0.15017596261E+03
 0.11131306980E+03 0.80920289387E+02 0.58313138171E+02 0.42064890640E+02 0.30624485000E+02
 0.22667987344E+02 0.17144122321E+02 0.13313114818E+02 0.10428840679E+02 0.86979941813E+01
 0.73820361041E+01 0.64179918729E+01 0.57207806488E+01 0.52242995925E+01 0.48762773092E+01
 0.46481061344E+01 0.45171974235E+01 0.44756368572E+01 0.45171974235E+01 0.46481061344E+01
 0.48762773092E+01 0.52242995925E+01 0.57207806488E+01 0.64179918729E+01 0.73820361041E+01
 0.86979941813E+01 0.10428840679E+02 0.13313114818E+02 0.17144122321E+02 0.22667987344E+02
 0.30624485000E+02 0.42064890640E+02 0.58313138171E+02 0.80920289387E+02 0.11131306980E+03
 0.15017596261E+03 0.19646876296E+03 0.24656888564E+03 0.29434127718E+03 0.33291878555E+03
 0.35731843753E+03 0.26608001524E+03 0.25941412018E+03 0.24038278594E+03 0.21181479606E+03
 0.17792388462E+03 0.14321642737E+03 0.11131306980E+03 0.84297037631E+02 0.62796075410E+02
 0.46441517393E+02 0.34395227026E+02 0.25701796466E+02 0.19505455234E+02 0.15105472279E+02
 0.11984688417E+02 0.96575366094E+01 0.81407527651E+01 0.70031279575E+01 0.61595644409E+01
 0.55510300840E+01 0.51084796821E+01 0.48008019588E+01 0.45939461198E+01 0.44786908765E+01
 0.44389752956E+01 0.44786908765E+01 0.45939461198E+01 0.48008019588E+01 0.51084796821E+01
 0.55510300840E+01 0.61595644409E+01 0.70031279575E+01 0.81407527651E+01 0.96575366094E+01
 0.11984688417E+02 0.15105472279E+02 0.19505455234E+02 0.25701796466E+02 0.34395227026E+02
 0.46441517393E+02 0.62796075410E+02 0.84297037631E+02 0.11131306980E+03 0.14321642737E+03
 0.17792388462E+03 0.21181479606E+03 0.24038278594E+03 0.25941412018E+03 0.18235225299E+03
 0.17791438409E+03 0.16533372199E+03 0.14663766366E+03 0.12458141088E+03 0.10195040307E+03
 0.80920289387E+02 0.62796075410E+02 0.48039650250E+02 0.36534135295E+02 0.27827114437E+02
 0.21379284876E+02 0.16659166359E+02 0.13232950253E+02 0.10533335757E+02 0.88835290344E+01
 0.75952894576E+01 0.66263642916E+01 0.59070559867E+01 0.53804198151E+01 0.49958476721E+01
 0.47252236180E+01 0.45437275635E+01 0.44411792710E+01 0.44066796273E+01 0.44411792710E+01
 0.45437275635E+01 0.47252236180E+01 0.49958476721E+01 0.53804198151E+01 0.59070559867E+01
 0.66263642916E+01 0.75952894576E+01 0.88835290344E+01 0.10533335757E+02 0.13232950253E+02
 0.16659166359E+02 0.21379284876E+02 0.27827114437E+02 0.36534135295E+02 0.48039650250E+02
 0.62796075410E+02 0.80920289387E+02 0.10195040307E+03 0.12458141088E+03 0.14663766366E+03
 0.16533372199E+03 0.17791438409E+03 0.12176496480E+03 0.11903670319E+03 0.11129857078E+03
 0.99757829226E+02 0.86043336064E+02 0.71790534977E+02 0.58313138171E+02 0.46441517393E+02
 0.36534135295E+02 0.28594520546E+02 0.22422451359E+02 0.17726045283E+02 0.14196362263E+02
 0.11565879000E+02 0.95285936477E+01 0.81446428541E+01 0.70791770552E+01 0.62686212439E+01
 0.56672453573E+01 0.52172349617E+01 0.48899589247E+01 0.46540961808E+01 0.44988852566E+01
 0.44075365557E+01 0.43796247865E+01 0.44075365557E+01 0.44988852566E+01 0.46540961808E+01
 0.48899589247E+01 0.52172349617E+01 0.56672453573E+01 0.62686212439E+01 0.70791770552E+01
 0.81446428541E+01 0.95285936477E+01 0.11565879000E+02 0.14196362263E+02 0.17726045283E+02
 0.22422451359E+02 0.28594520546E+02 0.36534135295E+02 0.46441517393E+02 0.58313138171E+02
 0.71790534977E+02 0.86043336064E+02 0.99757829226E+02 0.11129857078E+03 0.11903670319E+03
 0.80894207901E+02 0.79272334722E+02 0.74657023548E+02 0.67719630361E+02 0.59377887769E+02
 0.50566161532E+02 0.42064890640E+02 0.34395227026E+02 0.27827114437E+02 0.22422451359E+02
 0.18106357515E+02 0.14724942236E+02 0.12125291882E+02 0.10003553351E+02 0.85930882544E+01
 0.74730528738E+01 0.66033226524E+01 0.59436566702E+01 0.54436472767E+01 0.50692927666E+01
 0.47912779837E+01 0.45931447372E+01 0.44591700577E+01 0.43829365292E+01 0.43573286648E+01
 0.43829365292E+01 0.44591700577E+01 0.45931447372E+01 0.47912779837E+01 0.50692927666E+01
 0.54436472767E+01 0.59436566702E+01 0.66033226524E+01 0.74730528738E+01 0.85930882544E+01
 0.10003553351E+02 0.12125291882E+02 0.14724942236E+02 0.18106357515E+02 0.22422451359E+02
 0.27827114437E+02 0.34395227026E+02 0.42064890640E+02 0.50566161532E+02 0.59377887769E+02
 0.67719630361E+02 0.74657023548E+02 0.79272334722E+02 0.54225287924E+02 0.53272848733E+02
 0.50546281505E+02 0.46413293744E+02 0.41374118910E+02 0.35959674350E+02 0.30624485000E+02
 0.25701796466E+02 0.21379284876E+02 0.17726045283E+02 0.14724942236E+02 0.12322337244E+02
 0.10255882556E+02 0.88865527641E+01 0.77654122268E+01 0.68752351606E+01 0.61835659534E+01
 0.56518128328E+01 0.52448820173E+01 0.49364857927E+01 0.47066541331E+01 0.45410553481E+01
 0.44293817075E+01 0.43650408189E+01 0.43439535430E+01 0.43650408189E+01 0.44293817075E+01
 0.45410553481E+01 0.47066541331E+01 0.49364857927E+01 0.52448820173E+01 0.56518128328E+01
 0.61835659534E+01 0.68752351606E+01 0.77654122268E+01 0.88865527641E+01 0.10255882556E+02
 0.12322337244E+02 0.14724942236E+02 0.17726045283E+02 0.21379284876E+02 0.25701796466E+02
 0.30624485000E+02 0.35959674350E+02 0.41374118910E+02 0.46413293744E+02 0.50546281505E+02
 0.53272848733E+02 0.37042589538E+02 0.36480295811E+02 0.34866677098E+02 0.32395730484E+02
 0.29346791388E+02 0.26015037543E+02 0.22667987344E+02 0.19505455234E+02 0.16659166359E+02
 0.14196362263E+02 0.12125291882E+02 0.10255882556E+02 0.89885937140E+01 0.79214484960E+01
 0.70528330369E+01 0.63612728021E+01 0.58198161041E+01 0.53978011166E+01 0.50719000343E+01
 0.48222962197E+01 0.46356580505E+01 0.45004444490E+01 0.44095105372E+01 0.43566926605E+01
 0.43396777659E+01 0.43566926605E+01 0.44095105372E+01 0.45004444490E+01 0.46356580505E+01
 0.48222962197E+01 0.50719000343E+01 0.53978011166E+01 0.58198161041E+01 0.63612728021E+01
 0.70528330369E+01 0.79214484960E+01 0.89885937140E+01 0.10255882556E+02 0.12125291882E+02
 0.14196362263E+02 0.16659166359E+02 0.19505455234E+02 0.22667987344E+02 0.26015037543E+02
 0.29346791388E+02 0.32395730484E+02 0.34866677098E+02 0.36480295811E+02 0.25982327234E+02
 0.25647977727E+02 0.24682635883E+02 0.23194112537E+02 0.21330988124E+02 0.19262526061E+02
 0.17144122321E+02 0.15105472279E+02 0.13232950253E+02 0.11565879000E+02 0.10003553351E+02
 0.88865527641E+01 0.79214484960E+01 0.71145897390E+01 0.64559404480E+01 0.59291170832E+01
 0.55107980116E+01 0.51817516799E+01 0.49248040880E+01 0.47280105398E+01 0.45798065731E+01
 0.44726129045E+01 0.43997357943E+01 0.43578799345E+01 0.43439535430E+01 0.43578799345E+01
 0.43997357943E+01 0.44726129045E+01 0.45798065731E+01 0.47280105398E+01 0.49248040880E+01
 0.51817516799E+01 0.55107980116E+01 0.59291170832E+01 0.64559404480E+01 0.71145897390E+01
 0.79214484960E+01 0.88865527641E+01 0.10003553351E+02 0.11565879000E+02 0.13232950253E+02
 0.15105472279E+02 0.17144122321E+02 0.19262526061E+02 0.21330988124E+02 0.23194112537E+02
 0.24682635883E+02 0.25647977727E+02 0.18804757628E+02 0.18602275783E+02 0.18016515522E+02
 0.17105058225E+02 0.15954451683E+02 0.14659932889E+02 0.13313114818E+02 0.11984688417E+02
 0.10533335757E+02 0.95285936477E+01 0.85930882544E+01 0.77654122268E+01 0.70528330369E+01
 0.64559404480E+01 0.59670562134E+01 0.55708175540E+01 0.52533129603E+01 0.50012481468E+01
 0.48046490495E+01 0.46526634045E+01 0.45383619176E+01 0.44554146531E+01 0.43998485255E+01
 0.43676412931E+01 0.43573286648E+01 0.43676412931E+01 0.43998485255E+01 0.44554146531E+01
 0.45383619176E+01 0.46526634045E+01 0.48046490495E+01 0.50012481468E+01 0.52533129603E+01
 0.55708175540E+01 0.59670562134E+01 0.64559404480E+01 0.70528330369E+01 0.77654122268E+01
 0.85930882544E+01 0.95285936477E+01 0.10533335757E+02 0.11984688417E+02 0.13313114818E+02
 0.14659932889E+02 0.15954451683E+02 0.17105058225E+02 0.18016515522E+02 0.18602275783E+02
 0.14098171637E+02 0.13974302496E+02 0.13613602099E+02 0.13047786162E+02 0.12323687696E+02
 0.11494283701E+02 0.10428840679E+02 0.96575366094E+01 0.88835290344E+01 0.81446428541E+01
 0.74730528738E+01 0.68752351606E+01 0.63612728021E+01 0.59291170832E+01 0.55708175540E+01
 0.52781546897E+01 0.50420243626E+01 0.48550087535E+01 0.47077134924E+01 0.45949343127E+01
 0.45108865451E+01 0.44509116046E+01 0.44104371092E+01 0.43873318830E+01 0.43796247865E+01
 0.43873318830E+01 0.44104371092E+01 0.44509116046E+01 0.45108865451E+01 0.45949343127E+01
 0.47077134924E+01 0.48550087535E+01 0.50420243626E+01 0.52781546897E+01 0.55708175540E+01
 0.59291170832E+01 0.63612728021E+01 0.68752351606E+01 0.74730528738E+01 0.81446428541E+01
 0.88835290344E+01 0.96575366094E+01 0.10428840679E+02 0.11494283701E+02 0.12323687696E+02
 0.13047786162E+02 0.13613602099E+02 0.13974302496E+02 0.10947633338E+02 0.10869743999E+02
 0.10441364062E+02 0.10129698012E+02 0.97209545912E+01 0.92353708402E+01 0.86979941813E+01
 0.81407527651E+01 0.75952894576E+01 0.70791770552E+01 0.66033226524E+01 0.61835659534E+01
 0.58198161041E+01 0.55107980116E+01 0.52533129603E+01 0.50420243626E+01 0.48725339021E+01
 0.47372781225E+01 0.46331249450E+01 0.45547234120E+01 0.44968321834E+01 0.44551607190E+01
 0.44275432696E+01 0.44116883360E+01 0.44066796273E+01 0.44116883360E+01 0.44275432696E+01
 0.44551607190E+01 0.44968321834E+01 0.45547234120E+01 0.46331249450E+01 0.47372781225E+01
 0.48725339021E+01 0.50420243626E+01 0.52533129603E+01 0.55107980116E+01 0.58198161041E+01
 0.61835659534E+01 0.66033226524E+01 0.70791770552E+01 0.75952894576E+01 0.81407527651E+01
 0.86979941813E+01 0.92353708402E+01 0.97209545912E+01 0.10129698012E+02 0.10441364062E+02
 0.10869743999E+02 0.87859105210E+01 0.87386330165E+01 0.85996262586E+01 0.83778955009E+01
 0.80879861413E+01 0.77492753480E+01 0.73820361041E+01 0.70031279575E+01 0.66263642916E+01
 0.62686212439E+01 0.59436566702E+01 0.56518128328E+01 0.53978011166E+01 0.51817516799E+01
 0.50012481468E+01 0.48550087535E+01 0.47372781225E+01 0.46466012832E+01 0.45785882580E+01
 0.45277338853E+01 0.44908430539E+01 0.44658444079E+01 0.44501247098E+01 0.44416898726E+01
 0.44389752956E+01 0.44416898726E+01 0.44501247098E+01 0.44658444079E+01 0.44908430539E+01
 0.45277338853E+01 0.45785882580E+01 0.46466012832E+01 0.47372781225E+01 0.48550087535E+01
 0.50012481468E+01 0.51817516799E+01 0.53978011166E+01 0.56518128328E+01 0.59436566702E+01
 0.62686212439E+01 0.66263642916E+01 0.70031279575E+01 0.73820361041E+01 0.77492753480E+01
 0.80879861413E+01 0.83778955009E+01 0.85996262586E+01 0.87386330165E+01 0.73585123561E+01
 0.73269535901E+01 0.72347714963E+01 0.70878420677E+01 0.68954670343E+01 0.66680292864E+01
 0.64179918729E+01 0.61595644409E+01 0.59070559867E+01 0.56672453573E+01 0.54436472767E+01
 0.52448820173E+01 0.50719000343E+01 0.49248040880E+01 0.48046490495E+01 0.47077134924E+01
 0.46331249450E+01 0.45785882580E+01 0.45385798658E+01 0.45107764715E+01 0.44933880793E+01
 0.44835408556E+01 0.44785297939E+01 0.44762401159E+01 0.44756368572E+01 0.44762401159E+01
 0.44785297939E+01 0.44835408556E+01 0.44933880793E+01 0.45107764715E+01 0.45385798658E+01
 0.45785882580E+01 0.46331249450E+01 0.47077134924E+01 0.48046490495E+01 0.49248040880E+01
 0.50719000343E+01 0.52448820173E+01 0.54436472767E+01 0.56672453573E+01 0.59070559867E+01
 0.61595644409E+01 0.64179918729E+01 0.66680292864E+01 0.68954670343E+01 0.70878420677E+01
 0.72347714963E+01 0.73269535901E+01 0.63488162784E+01 0.63276883678E+01 0.62652607669E+01
 0.61660133796E+01 0.60362049255E+01 0.58849065027E+01 0.57207806488E+01 0.55510300840E+01
 0.53804198151E+01 0.52172349617E+01 0.50692927666E+01 0.49364857927E+01 0.48222962197E+01
 0.47280105398E+01 0.46526634045E+01 0.45949343127E+01 0.45547234120E+01 0.45277338853E+01
 0.45107764715E+01 0.45033397906E+01 0.45023926608E+01 0.45050960157E+01 0.45084041849E+01
 0.45111561711E+01 0.45120127760E+01 0.45111561711E+01 0.45084041849E+01 0.45050960157E+01
 0.45023926608E+01 0.45033397906E+01 0.45107764715E+01 0.45277338853E+01 0.45547234120E+01
 0.45949343127E+01 0.46526634045E+01 0.47280105398E+01 0.48222962197E+01 0.49364857927E+01
 0.50692927666E+01 0.52172349617E+01 0.53804198151E+01 0.55510300840E+01 0.57207806488E+01
 0.58849065027E+01 0.60362049255E+01 0.61660133796E+01 0.62652607669E+01 0.63276883678E+01
 0.56397425966E+01 0.56259627999E+01 0.55855840106E+01 0.55212294638E+01 0.54366058146E+01
 0.53359907899E+01 0.52242995925E+01 0.51084796821E+01 0.49958476721E+01 0.48899589247E+01
 0.47912779837E+01 0.47066541331E+01 0.46356580505E+01 0.45798065731E+01 0.45383619176E+01
 0.45108865451E+01 0.44968321834E+01 0.44908430539E+01 0.44933880793E+01 0.45023926608E+01
 0.45147511386E+01 0.45266065497E+01 0.45365520309E+01 0.45427960122E+01 0.45451548326E+01
 0.45427960122E+01 0.45365520309E+01 0.45266065497E+01 0.45147511386E+01 0.45023926608E+01
 0.44933880793E+01 0.44908430539E+01 0.44968321834E+01 0.45108865451E+01 0.45383619176E+01
 0.45798065731E+01 0.46356580505E+01 0.47066541331E+01 0.47912779837E+01 0.48899589247E+01
 0.49958476721E+01 0.51084796821E+01 0.52242995925E+01 0.53359907899E+01 0.54366058146E+01
 0.55212294638E+01 0.55855840106E+01 0.56259627999E+01 0.51603615845E+01 0.51507534636E+01
 0.51224507664E+01 0.50772873003E+01 0.50182982487E+01 0.49497854043E+01 0.48762773092E+01
 0.48008019588E+01 0.47252236180E+01 0.46540961808E+01 0.45931447372E+01 0.45410553481E+01
 0.45004444490E+01 0.44726129045E+01 0.44554146531E+01 0.44509116046E+01 0.44551607190E+01
 0.44658444079E+01 0.44835408556E+01 0.45050960157E+01 0.45266065497E+01 0.45455353872E+01
 0.45602806282E+01 0.45697091816E+01 0.45729316620E+01 0.45697091816E+01 0.45602806282E+01
 0.45455353872E+01 0.45266065497E+01 0.45050960157E+01 0.44835408556E+01 0.44658444079E+01
 0.44551607190E+01 0.44509116046E+01 0.44554146531E+01 0.44726129045E+01 0.45004444490E+01
 0.45410553481E+01 0.45931447372E+01 0.46540961808E+01 0.47252236180E+01 0.48008019588E+01
 0.48762773092E+01 0.49497854043E+01 0.50182982487E+01 0.50772873003E+01 0.51224507664E+01
 0.51507534636E+01 0.48453168785E+01 0.48386451579E+01 0.48194914120E+01 0.47888179198E+01
 0.47487795737E+01 0.47009657402E+01 0.46481061344E+01 0.45939461198E+01 0.45437275635E+01
 0.44988852566E+01 0.44591700577E+01 0.44293817075E+01 0.44095105372E+01 0.43997357943E+01
 0.43998485255E+01 0.44104371092E+01 0.44275432696E+01 0.44501247098E+01 0.44785297939E+01
 0.45084041849E+01 0.45365520309E+01 0.45602806282E+01 0.45787675219E+01 0.45902509351E+01
 0.45943808079E+01 0.45902509351E+01 0.45787675219E+01 0.45602806282E+01 0.45365520309E+01
 0.45084041849E+01 0.44785297939E+01 0.44501247098E+01 0.44275432696E+01 0.44104371092E+01
 0.43998485255E+01 0.43997357943E+01 0.44095105372E+01 0.44293817075E+01 0.44591700577E+01
 0.44988852566E+01 0.45437275635E+01 0.45939461198E+01 0.46481061344E+01 0.47009657402E+01
 0.47487795737E+01 0.47888179198E+01 0.48194914120E+01 0.48386451579E+01 0.46715590618E+01
 0.46661550411E+01 0.46504419780E+01 0.46252983073E+01 0.45928515216E+01 0.45557206588E+01
 0.45171974235E+01 0.44786908765E+01 0.44411792710E+01 0.44075365557E+01 0.43829365292E+01
 0.43650408189E+01 0.43566926605E+01 0.43578799345E+01 0.43676412931E+01 0.43873318830E+01
 0.44116883360E+01 0.44416898726E+01 0.44762401159E+01 0.45111561711E+01 0.45427960122E+01
 0.45697091816E+01 0.45902509351E+01 0.46033718203E+01 0.46077710285E+01 0.46033718203E+01
 0.45902509351E+01 0.45697091816E+01 0.45427960122E+01 0.45111561711E+01 0.44762401159E+01
 0.44416898726E+01 0.44116883360E+01 0.43873318830E+01 0.43676412931E+01 0.43578799345E+01
 0.43566926605E+01 0.43650408189E+01 0.43829365292E+01 0.44075365557E+01 0.44411792710E+01
 0.44786908765E+01 0.45171974235E+01 0.45557206588E+01 0.45928515216E+01 0.46252983073E+01
 0.46504419780E+01 0.46661550411E+01 0.46124988376E+01 0.46077710285E+01 0.45943808079E+01
 0.45729316620E+01 0.45451548326E+01 0.45120127760E+01 0.44756368572E+01 0.44389752956E+01
 0.44066796273E+01 0.43796247865E+01 0.43573286648E+01 0.43439535430E+01 0.43396777659E+01
 0.43439535430E+01 0.43573286648E+01 0.43796247865E+01 0.44066796273E+01 0.44389752956E+01
 0.44756368572E+01 0.45120127760E+01 0.45451548326E+01 0.45729316620E+01 0.45943808079E+01
 0.46077710285E+01 0.46124988376E+01 0.46077710285E+01 0.45943808079E+01 0.45729316620E+01
 0.45451548326E+01 0.45120127760E+01 0.44756368572E+01 0.44389752956E+01 0.44066796273E+01
 0.43796247865E+01 0.43573286648E+01 0.43439535430E+01 0.43396777659E+01 0.43439535430E+01
 0.43573286648E+01 0.43796247865E+01 0.44066796273E+01 0.44389752956E+01 0.44756368572E+01
 0.45120127760E+01 0.45451548326E+01 0.45729316620E+01 0.45943808079E+01 0.46077710285E+01
 0.46715590618E+01 0.46661550411E+01 0.46504419780E+01 0.46252983073E+01 0.45928515216E+01
 0.45557206588E+01 0.45171974235E+01 0.44786908765E+01 0.44411792710E+01 0.44075365557E+01
 0.43829365292E+01 0.43650408189E+01 0.43566926605E+01 0.43578799345E+01 0.43676412931E+01
 0.43873318830E+01 0.44116883360E+01 0.44416898726E+01 0.44762401159E+01 0.45111561711E+01
 0.45427960122E+01 0.45697091816E+01 0.45902509351E+01 0.46033718203E+01 0.46077710285E+01
 0.46033718203E+01 0.45902509351E+01 0.45697091816E+01 0.45427960122E+01 0.45111561711E+01
 0.44762401159E+01 0.44416898726E+01 0.44116883360E+01 0.43873318830E+01 0.43676412931E+01
 0.43578799345E+01 0.43566926605E+01 0.43650408189E+01 0.43829365292E+01 0.44075365557E+01
 0.44411792710E+01 0.44786908765E+01 0.45171974235E+01 0.45557206588E+01 0.45928515216E+01
 0.46252983073E+01 0.46504419780E+01 0.46661550411E+01 0.48453168785E+01 0.48386451579E+01
 0.48194914120E+01 0.47888179198E+01 0.47487795737E+01 0.47009657402E+01 0.46481061344E+01
 0.45939461198E+01 0.45437275635E+01 0.44988852566E+01 0.44591700577E+01 0.44293817075E+01
 0.44095105372E+01 0.43997357943E+01 0.43998485255E+01 0.44104371092E+01 0.44275432696E+01
 0.44501247098E+01 0.44785297939E+01 0.45084041849E+01 0.45365520309E+01 0.45602806282E+01
 0.45787675219E+01 0.45902509351E+01 0.45943808079E+01 0.45902509351E+01 0.45787675219E+01
 0.45602806282E+01 0.45365520309E+01 0.45084041849E+01 0.44785297939E+01 0.44501247098E+01
 0.44275432696E+01 0.44104371092E+01 0.43998485255E+01 0.43997357943E+01 0.44095105372E+01
 0.44293817075E+01 0.44591700577E+01 0.44988852566E+01 0.45437275635E+01 0.45939461198E+01
 0.46481061344E+01 0.47009657402E+01 0.47487795737E+01 0.47888179198E+01 0.48194914120E+01
 0.48386451579E+01 0.51603615845E+01 0.51507534636E+01 0.51224507664E+01 0.50772873003E+01
 0.50182982487E+01 0.49497854043E+01 0.48762773092E+01 0.48008019588E+01 0.47252236180E+01
 0.46540961808E+01 0.45931447372E+01 0.45410553481E+01 0.45004444490E+01 0.44726129045E+01
 0.44554146531E+01 0.44509116046E+01 0.44551607190E+01 0.44658444079E+01 0.44835408556E+01
 0.45050960157E+01 0.45266065497E+01 0.45455353872E+01 0.45602806282E+01 0.45697091816E+01
 0.45729316620E+01 0.45697091816E+01 0.45602806282E+01 0.45455353872E+01 0.45266065497E+01
 0.45050960157E+01 0.44835408556E+01 0.44658444079E+01 0.44551607190E+01 0.44509116046E+01
 0.44554146531E+01 0.44726129045E+01 0.45004444490E+01 0.45410553481E+01 0.45931447372E+01
 0.46540961808E+01 0.47252236180E+01 0.48008019588E+01 0.48762773092E+01 0.49497854043E+01
 0.50182982487E+01 0.50772873003E+01 0.51224507664E+01 0.51507534636E+01 0.56397425966E+01
 0.56259627999E+01 0.55855840106E+01 0.55212294638E+01 0.54366058146E+01 0.53359907899E+01
 0.52242995925E+01 0.51084796821E+01 0.49958476721E+01 0.48899589247E+01 0.47912779837E+01
 0.47066541331E+01 0.46356580505E+01 0.45798065731E+01 0.45383619176E+01 0.45108865451E+01
 0.44968321834E+01 0.44908430539E+01 0.44933880793E+01 0.45023926608E+01 0.45147511386E+01
 0.45266065497E+01 0.45365520309E+01 0.45427960122E+01 0.45451548326E+01 0.45427960122E+01
 0.45365520309E+01 0.45266065497E+01 0.45147511386E+01 0.45023926608E+01 0.44933880793E+01
 0.44908430539E+01 0.44968321834E+01 0.45108865451E+01 0.45383619176E+01 0.45798065731E+01
 0.46356580505E+01 0.47066541331E+01 0.47912779837E+01 0.48899589247E+01 0.49958476721E+01
 0.51084796821E+01 0.52242995925E+01 0.53359907899E+01 0.54366058146E+01 0.55212294638E+01
 0.55855840106E+01 0.56259627999E+01 0.63488162784E+01 0.63276883678E+01 0.62652607669E+01
 0.61660133796E+01 0.60362049255E+01 0.58849065027E+01 0.57207806488E+01 0.55510300840E+01
 0.53804198151E+01 0.52172349617E+01 0.50692927666E+01 0.49364857927E+01 0.48222962197E+01
 0.47280105398E+01 0.46526634045E+01 0.45949343127E+01 0.45547234120E+01 0.45277338853E+01
 0.45107764715E+01 0.45033397906E+01 0.45023926608E+01 0.45050960157E+01 0.45084041849E+01
 0.45111561711E+01 0.45120127760E+01 0.45111561711E+01 0.45084041849E+01 0.45050960157E+01
 0.45023926608E+01 0.45033397906E+01 0.45107764715E+01 0.45277338853E+01 0.45547234120E+01
 0.45949343127E+01 0.46526634045E+01 0.47280105398E+01 0.48222962197E+01 0.49364857927E+01
 0.50692927666E+01 0.52172349617E+01 0.53804198151E+01 0.55510300840E+01 0.57207806488E+01
 0.58849065027E+01 0.60362049255E+01 0.61660133796E+01 0.62652607669E+01 0.63276883678E+01
 0.73585123561E+01 0.73269535901E+01 0.72347714963E+01 0.70878420677E+01 0.68954670343E+01
 0.66680292864E+01 0.64179918729E+01 0.61595644409E+01 0.59070559867E+01 0.56672453573E+01
 0.54436472767E+01 0.52448820173E+01 0.50719000343E+01 0.49248040880E+01 0.48046490495E+01
 0.47077134924E+01 0.46331249450E+01 0.45785882580E+01 0.45385798658E+01 0.45107764715E+01
 0.44933880793E+01 0.44835408556E+01 0.44785297939E+01 0.44762401159E+01 0.44756368572E+01
 0.44762401159E+01 0.44785297939E+01 0.44835408556E+01 0.44933880793E+01 0.45107764715E+01
 0.45385798658E+01 0.45785882580E+01 0.46331249450E+01 0.47077134924E+01 0.48046490495E+01
 0.49248040880E+01 0.50719000343E+01 0.52448820173E+01 0.54436472767E+01 0.56672453573E+01
 0.59070559867E+01 0.61595644409E+01 0.64179918729E+01 0.66680292864E+01 0.68954670343E+01
 0.70878420677E+01 0.72347714963E+01 0.73269535901E+01 0.87859105210E+01 0.87386330165E+01
 0.85996262586E+01 0.83778955009E+01 0.80879861413E+01 0.77492753480E+01 0.73820361041E+01
 0.70031279575E+01 0.66263642916E+01 0.62686212439E+01 0.59436566702E+01 0.56518128328E+01
 0.53978011166E+01 0.51817516799E+01 0.50012481468E+01 0.48550087535E+01 0.47372781225E+01
 0.46466012832E+01 0.45785882580E+01 0.45277338853E+01 0.44908430539E+01 0.44658444079E+01
 0.44501247098E+01 0.44416898726E+01 0.44389752956E+01 0.44416898726E+01 0.44501247098E+01
 0.44658444079E+01 0.44908430539E+01 0.45277338853E+01 0.45785882580E+01 0.46466012832E+01
 0.47372781225E+01 0.48550087535E+01 0.50012481468E+01 0.51817516799E+01 0.53978011166E+01
 0.56518128328E+01 0.59436566702E+01 0.62686212439E+01 0.66263642916E+01 0.70031279575E+01
 0.73820361041E+01 0.77492753480E+01 0.80879861413E+01 0.83778955009E+01 0.85996262586E+01
 0.87386330165E+01 0.10947633338E+02 0.10869743999E+02 0.10441364062E+02 0.10129698012E+02
 0.97209545912E+01 0.92353708402E+01 0.86979941813E+01 0.81407527651E+01 0.75952894576E+01
 0.70791770552E+01 0.66033226524E+01 0.61835659534E+01 0.58198161041E+01 0.55107980116E+01
 0.52533129603E+01 0.50420243626E+01 0.48725339021E+01 0.47372781225E+01 0.46331249450E+01
 0.45547234120E+01 0.44968321834E+01 0.44551607190E+01 0.44275432696E+01 0.44116883360E+01
 0.44066796273E+01 0.44116883360E+01 0.44275432696E+01 0.44551607190E+01 0.44968321834E+01
 0.45547234120E+01 0.46331249450E+01 0.47372781225E+01 0.48725339021E+01 0.50420243626E+01
 0.52533129603E+01 0.55107980116E+01 0.58198161041E+01 0.61835659534E+01 0.66033226524E+01
 0.70791770552E+01 0.75952894576E+01 0.81407527651E+01 0.86979941813E+01 0.92353708402E+01
 0.97209545912E+01 0.10129698012E+02 0.10441364062E+02 0.10869743999E+02 0.14098171637E+02
 0.13974302496E+02 0.13613602099E+02 0.13047786162E+02 0.12323687696E+02 0.11494283701E+02
 0.10428840679E+02 0.96575366094E+01 0.88835290344E+01 0.81446428541E+01 0.74730528738E+01
 0.68752351606E+01 0.63612728021E+01 0.59291170832E+01 0.55708175540E+01 0.52781546897E+01
 0.50420243626E+01 0.48550087535E+01 0.47077134924E+01 0.45949343127E+01 0.45108865451E+01
 0.44509116046E+01 0.44104371092E+01 0.43873318830E+01 0.43796247865E+01 0.43873318830E+01
 0.44104371092E+01 0.44509116046E+01 0.45108865451E+01 0.45949343127E+01 0.47077134924E+01
 0.48550087535E+01 0.50420243626E+01 0.52781546897E+01 0.55708175540E+01 0.59291170832E+01
 0.63612728021E+01 0.68752351606E+01 0.74730528738E+01 0.81446428541E+01 0.88835290344E+01
 0.96575366094E+01 0.10428840679E+02 0.11494283701E+02 0.12323687696E+02 0.13047786162E+02