=========================================
SLURM_JOB_ID = 63599679
SLURM_JOB_NODELIST = lnode18
SLURM_GPUS = 
SLURM_CPUS_ON_NODE = 8
SLURM_JOB_PARTITION = lenovo
SLURM_TASK_PID = 211225
CUDA_VISIBLE_DEVICES = 
==========================================
 running on    8 total cores
 distrk:  each k-point on    8 cores,    1 groups
 distr:  one band on    4 cores,    2 groups
 using from now: INCAR     
 vasp.5.4.4.18Apr17-6-g9f103f2a35 (build Apr 28 2018 00:24:27) complex          
  
 POSCAR found type information on POSCAR  Co
 POSCAR found :  1 types and       2 ions
 scaLAPACK will be used
 LDA part: xc-table for Pade appr. of Perdew
 WARNING: stress and forces are not correct
 POSCAR, INCAR and KPOINTS ok, starting setup
 FFT: planning ...
 WAVECAR not read
 charge-density read from file: unknown                                 
 magnetization density read from file 1
 entering main loop
       N       E                     dE             d eps       ncg     rms          rms(c)
DAV:   1     0.494125548301E+02    0.49413E+02   -0.54472E+03  5826   0.799E+02
DAV:   2    -0.137389820652E+02   -0.63152E+02   -0.57184E+02  5542   0.169E+02
DAV:   3    -0.155140459899E+02   -0.17751E+01   -0.17486E+01  6224   0.344E+01
DAV:   4    -0.155374819021E+02   -0.23436E-01   -0.23429E-01  6774   0.344E+00
DAV:   5    -0.155380144843E+02   -0.53258E-03   -0.53257E-03  6352   0.466E-01
DAV:   6    -0.155380432794E+02   -0.28795E-04   -0.28795E-04  7130   0.835E-02
DAV:   7    -0.155380435090E+02   -0.22955E-06   -0.22973E-06  4988   0.613E-03
   1 F= -.15538044E+02 E0= -.15519077E+02  d E =-.379330E-01  mag=     3.2116
 writing wavefunctions
