=========================================
SLURM_JOB_ID = 63444601
SLURM_JOB_NODELIST = lnode20
SLURM_GPUS = 
SLURM_CPUS_ON_NODE = 16
SLURM_JOB_PARTITION = lenovo
SLURM_TASK_PID = 2511968
CUDA_VISIBLE_DEVICES = 
==========================================
 running on   16 total cores
 distrk:  each k-point on   16 cores,    1 groups
 distr:  one band on    4 cores,    4 groups
 using from now: INCAR     
 vasp.5.4.4.18Apr17-6-g9f103f2a35 (build Apr 28 2018 00:24:27) complex          
  
 POSCAR found type information on POSCAR  Fe
 POSCAR found :  1 types and       1 ions
 scaLAPACK will be used

 ----------------------------------------------------------------------------- 
|                                                                             |
|  ADVICE TO THIS USER RUNNING 'VASP/VAMP'   (HEAR YOUR MASTER'S VOICE ...):  |
|                                                                             |
|      You have a (more or less) 'small supercell' and for smaller cells      |
|      it is recommended  to use the reciprocal-space projection scheme!      |
|      The real space optimization is not  efficient for small cells and it   |
|      is also less accurate ...                                              |
|      Therefore set LREAL=.FALSE. in the  INCAR file                         |
|                                                                             |
 ----------------------------------------------------------------------------- 

 LDA part: xc-table for Pade appr. of Perdew
 POSCAR, INCAR and KPOINTS ok, starting setup
 FFT: planning ...
 WAVECAR not read
 entering main loop
       N       E                     dE             d eps       ncg     rms          rms(c)
DAV:   1     0.958679605671E+02    0.95868E+02   -0.84502E+03 13504   0.135E+03
DAV:   2    -0.147695469413E+01   -0.97345E+02   -0.90904E+02 13184   0.304E+02
DAV:   3    -0.395072552178E+01   -0.24738E+01   -0.24706E+01 14472   0.507E+01
DAV:   4    -0.396103403167E+01   -0.10309E-01   -0.10308E-01 14712   0.321E+00
DAV:   5    -0.396110873727E+01   -0.74706E-04   -0.74705E-04 14728   0.252E-01    0.157E+01
DAV:   6    -0.396591389192E+01   -0.48052E-02   -0.18413E+00 12792   0.275E+01    0.647E+00
DAV:   7    -0.417450527673E+01   -0.20859E+00   -0.19581E-01 13048   0.571E+00    0.394E+00
DAV:   8    -0.422286359001E+01   -0.48358E-01   -0.26821E-02 13000   0.181E+00    0.168E+00
DAV:   9    -0.422502414525E+01   -0.21606E-02   -0.19877E-02 15168   0.641E-01    0.201E-01
DAV:  10    -0.422646994593E+01   -0.14458E-02   -0.20614E-03 13360   0.276E-01    0.144E-01
DAV:  11    -0.422751504696E+01   -0.10451E-02   -0.29515E-03 15192   0.222E-01    0.928E-02
DAV:  12    -0.422776006651E+01   -0.24502E-03   -0.11816E-03 14456   0.142E-01    0.189E-02
DAV:  13    -0.422776575823E+01   -0.56917E-05   -0.44611E-05 14472   0.423E-02    0.147E-02
DAV:  14    -0.422777134746E+01   -0.55892E-05   -0.14126E-06 13256   0.883E-03    0.469E-03
DAV:  15    -0.422777508183E+01   -0.37344E-05   -0.28424E-07 13944   0.626E-03    0.294E-03
DAV:  16    -0.422777498199E+01    0.99838E-07   -0.97907E-08  7400   0.166E-03
   1 F= -.42277750E+01 E0= -.42277750E+01  d E =0.000000E+00  mag=     2.8853
