=========================================
SLURM_JOB_ID = 63456899
SLURM_JOB_NODELIST = lnode43
SLURM_GPUS = 
SLURM_CPUS_ON_NODE = 8
SLURM_JOB_PARTITION = lenovo
SLURM_TASK_PID = 4141017
CUDA_VISIBLE_DEVICES = 
==========================================
 running on    8 total cores
 distrk:  each k-point on    8 cores,    1 groups
 distr:  one band on    4 cores,    2 groups
 using from now: INCAR     
 vasp.5.4.4.18Apr17-6-g9f103f2a35 (build Apr 28 2018 00:24:27) complex          
  
 POSCAR found type information on POSCAR  Eu O 
 POSCAR found :  2 types and       2 ions
 scaLAPACK will be used

 ----------------------------------------------------------------------------- 
|                                                                             |
|  ADVICE TO THIS USER RUNNING 'VASP/VAMP'   (HEAR YOUR MASTER'S VOICE ...):  |
|                                                                             |
|      You have a (more or less) 'small supercell' and for smaller cells      |
|      it is recommended  to use the reciprocal-space projection scheme!      |
|      The real space optimization is not  efficient for small cells and it   |
|      is also less accurate ...                                              |
|      Therefore set LREAL=.FALSE. in the  INCAR file                         |
|                                                                             |
 ----------------------------------------------------------------------------- 

 LDA part: xc-table for Pade appr. of Perdew
 POSCAR, INCAR and KPOINTS ok, starting setup
 FFT: planning ...
 WAVECAR not read
 entering main loop
       N       E                     dE             d eps       ncg     rms          rms(c)
DAV:   1     0.127256711259E+03    0.12726E+03   -0.89107E+03  8440   0.221E+03
DAV:   2    -0.794938292336E+01   -0.13521E+03   -0.12110E+03  7608   0.279E+02
DAV:   3    -0.198639904938E+02   -0.11915E+02   -0.11441E+02  7900   0.864E+01
DAV:   4    -0.204647523920E+02   -0.60076E+00   -0.58861E+00 10996   0.174E+01
DAV:   5    -0.204822324813E+02   -0.17480E-01   -0.17443E-01  9236   0.231E+00    0.184E+01
DAV:   6    -0.256736058172E+02   -0.51914E+01   -0.10030E+02 10268   0.107E+02    0.273E+01
DAV:   7    -0.209449875063E+02    0.47286E+01   -0.22250E+01  8724   0.810E+01    0.101E+01
DAV:   8    -0.209478766108E+02   -0.28891E-02   -0.12889E+00  9848   0.991E+00    0.480E+00
DAV:   9    -0.209241057382E+02    0.23771E-01   -0.16693E+00 10636   0.112E+01    0.260E+00
DAV:  10    -0.208688407147E+02    0.55265E-01   -0.22771E-01  9660   0.431E+00    0.935E-01
DAV:  11    -0.208655406920E+02    0.33000E-02   -0.14176E-02  9936   0.117E+00    0.770E-01
DAV:  12    -0.208653238323E+02    0.21686E-03   -0.23998E-02 10160   0.144E+00    0.365E-01
DAV:  13    -0.208656155371E+02   -0.29170E-03   -0.19807E-03  9524   0.294E-01    0.188E-01
DAV:  14    -0.208657165075E+02   -0.10097E-03   -0.14234E-03 10140   0.365E-01    0.772E-02
DAV:  15    -0.208656633902E+02    0.53117E-04   -0.17976E-04  9880   0.108E-01    0.390E-02
DAV:  16    -0.208656817756E+02   -0.18385E-04   -0.16446E-05 10104   0.336E-02    0.130E-02
DAV:  17    -0.208656827305E+02   -0.95492E-06   -0.23767E-06 11568   0.107E-02    0.455E-03
DAV:  18    -0.208656828032E+02   -0.72686E-07   -0.46249E-07  8216   0.453E-03
   1 F= -.20865683E+02 E0= -.20865683E+02  d E =0.000000E+00  mag=     6.9931
