       N       E                     dE             d eps       ncg     rms          rms(c)
DAV:   1     0.154768300239E+03    0.15477E+03   -0.10504E+04  1884   0.253E+03
DAV:   2     0.223966938496E+01   -0.15253E+03   -0.13412E+03  1748   0.274E+02
DAV:   3    -0.149955671156E+02   -0.17235E+02   -0.16697E+02  1816   0.999E+01
DAV:   4    -0.159713275363E+02   -0.97576E+00   -0.95741E+00  2592   0.209E+01
DAV:   5    -0.160334671634E+02   -0.62140E-01   -0.61959E-01  2432   0.427E+00    0.132E+01
DAV:   6    -0.202067144743E+02   -0.41732E+01   -0.46473E+01  2324   0.680E+01    0.177E+01
DAV:   7    -0.190857444892E+02    0.11210E+01   -0.28723E+00  1936   0.388E+01    0.656E+00
DAV:   8    -0.187620212339E+02    0.32372E+00   -0.14329E+00  2728   0.142E+01    0.253E+00
DAV:   9    -0.188337353708E+02   -0.71714E-01   -0.13633E+00  2152   0.986E+00    0.334E+00
DAV:  10    -0.187494102807E+02    0.84325E-01   -0.79957E-01  2088   0.737E+00    0.104E+00
DAV:  11    -0.187618478906E+02   -0.12438E-01   -0.19148E-02  2548   0.998E-01    0.545E-01
DAV:  12    -0.187603578757E+02    0.14900E-02   -0.52813E-03  2460   0.697E-01    0.512E-01
DAV:  13    -0.187586373692E+02    0.17205E-02   -0.45885E-03  2412   0.568E-01    0.269E-01
DAV:  14    -0.187583779441E+02    0.25943E-03   -0.13633E-03  2664   0.302E-01    0.158E-01
DAV:  15    -0.187584436393E+02   -0.65695E-04   -0.20797E-03  2068   0.382E-01    0.108E-02
DAV:  16    -0.187584440988E+02   -0.45951E-06   -0.92385E-05  2544   0.492E-02    0.960E-03
DAV:  17    -0.187584440840E+02    0.14851E-07   -0.33961E-06  2380   0.815E-03    0.866E-03
DAV:  18    -0.187584489596E+02   -0.48756E-05   -0.75973E-07  2392   0.648E-03    0.870E-03
DAV:  19    -0.187584378206E+02    0.11139E-04   -0.14668E-06  1924   0.104E-02    0.369E-03
DAV:  20    -0.187584329090E+02    0.49115E-05   -0.45983E-07  1688   0.560E-03    0.178E-03
DAV:  21    -0.187584321768E+02    0.73223E-06   -0.43935E-08  1044   0.194E-03    0.138E-03
DAV:  22    -0.187584340489E+02   -0.18721E-05   -0.71340E-08   988   0.279E-03    0.656E-04
DAV:  23    -0.187584341719E+02   -0.12301E-06   -0.85909E-09   920   0.882E-04    0.327E-04
DAV:  24    -0.187584345826E+02   -0.41070E-06   -0.57134E-09   920   0.759E-04    0.131E-04
DAV:  25    -0.187584349028E+02   -0.32013E-06   -0.34161E-09   908   0.544E-04    0.781E-05
DAV:  26    -0.187584348522E+02    0.50575E-07   -0.13348E-09   900   0.414E-04
   1 F= -.18758435E+02 E0= -.18758435E+02  d E =0.000000E+00  mag=     6.9956
