=========================================
SLURM_JOB_ID = 51752963
SLURM_JOB_NODELIST = lnode50
SLURM_GPUS = 
SLURM_CPUS_ON_NODE = 24
SLURM_JOB_PARTITION = lenovo
SLURM_TASK_PID = 1565836
CUDA_VISIBLE_DEVICES = 
==========================================
 running on   24 total cores
 distrk:  each k-point on   24 cores,    1 groups
 distr:  one band on    4 cores,    6 groups
 using from now: INCAR     
 vasp.5.4.4.18Apr17-6-g9f103f2a35 (build Apr 28 2018 00:24:27) complex          
  
 POSCAR found type information on POSCAR  Fe
 POSCAR found :  1 types and       2 ions
 scaLAPACK will be used

 ----------------------------------------------------------------------------- 
|                                                                             |
|  ADVICE TO THIS USER RUNNING 'VASP/VAMP'   (HEAR YOUR MASTER'S VOICE ...):  |
|                                                                             |
|      You have a (more or less) 'small supercell' and for smaller cells      |
|      it is recommended  to use the reciprocal-space projection scheme!      |
|      The real space optimization is not  efficient for small cells and it   |
|      is also less accurate ...                                              |
|      Therefore set LREAL=.FALSE. in the  INCAR file                         |
|                                                                             |
 ----------------------------------------------------------------------------- 

 LDA part: xc-table for Pade appr. of Perdew
 POSCAR, INCAR and KPOINTS ok, starting setup
 FFT: planning ...
 WAVECAR not read
 entering main loop
       N       E                     dE             d eps       ncg     rms          rms(c)
DAV:   1     0.258043663483E+03    0.25804E+03   -0.22678E+04  3384   0.245E+03
DAV:   2    -0.855509527712E+01   -0.26660E+03   -0.25560E+03  3432   0.468E+02
DAV:   3    -0.162073533999E+02   -0.76523E+01   -0.76361E+01  3600   0.860E+01
DAV:   4    -0.162736100574E+02   -0.66257E-01   -0.66263E-01  3936   0.762E+00
DAV:   5    -0.162748417042E+02   -0.12316E-02   -0.12317E-02  3588   0.971E-01    0.250E+01
DAV:   6    -0.164591385603E+02   -0.18430E+00   -0.74923E+00  3420   0.398E+01    0.691E+00
DAV:   7    -0.165136773581E+02   -0.54539E-01   -0.61485E-01  3408   0.979E+00    0.431E+00
DAV:   8    -0.165233971778E+02   -0.97198E-02   -0.15153E-02  3744   0.148E+00    0.137E+00
DAV:   9    -0.165151188980E+02    0.82783E-02   -0.52599E-03  3684   0.889E-01    0.337E-01
DAV:  10    -0.165149204066E+02    0.19849E-03   -0.22413E-03  3408   0.615E-01    0.441E-02
DAV:  11    -0.165149804894E+02   -0.60083E-04   -0.50031E-05  3576   0.672E-02    0.242E-02
DAV:  12    -0.165149886654E+02   -0.81760E-05   -0.50650E-06  3912   0.230E-02    0.954E-03
DAV:  13    -0.165149819133E+02    0.67520E-05   -0.12977E-06  3528   0.113E-02    0.249E-03
DAV:  14    -0.165149803481E+02    0.15653E-05   -0.15601E-07  2676   0.331E-03    0.659E-04
DAV:  15    -0.165149803642E+02   -0.16182E-07   -0.11253E-08  1740   0.110E-03
   1 F= -.16514980E+02 E0= -.16514980E+02  d E =0.000000E+00  mag=     4.4055
