 vasp.5.4.4.18Apr17-6-g9f103f2a35 (build Apr 28 2018 00:24:27) complex          
  
 executed on             LinuxIFC date 2021.09.06  23:54:46
 running on   24 total cores
 distrk:  each k-point on   24 cores,    1 groups
 distr:  one band on NCORES_PER_BAND=   4 cores,    6 groups


--------------------------------------------------------------------------------------------------------


 INCAR:
 POTCAR:    PAW_PBE Fe_pv 02Aug2007               
 POTCAR:    PAW_PBE Fe_pv 02Aug2007               
   VRHFIN =Fe:  3pd7s1                                                          
   LEXCH  = PE                                                                  
   EATOM  =  2457.4239 eV,  180.6156 Ry                                         
                                                                                
   TITEL  = PAW_PBE Fe_pv 02Aug2007                                             
   LULTRA =        F    use ultrasoft PP ?                                      
   IUNSCR =        1    unscreen: 0-lin 1-nonlin 2-no                           
   RPACOR =    1.750    partial core radius                                     
   POMASS =   55.847; ZVAL   =   14.000    mass and valenz                      
   RCORE  =    2.200    outmost cutoff radius                                   
   RWIGS  =    2.200; RWIGS  =    1.164    wigner-seitz radius (au A)           
   ENMAX  =  293.238; ENMIN  =  219.928 eV                                      
   ICORE  =        3    local potential                                         
   LCOR   =        T    correct aug charges                                     
   LPAW   =        T    paw PP                                                  
   EAUG   =  578.342                                                            
   DEXC   =    0.000                                                            
   RMAX   =    2.249    core radius for proj-oper                               
   RAUG   =    1.300    factor for augmentation sphere                          
   RDEP   =    2.296    radius for radial grids                                 
   RDEPT  =    1.766    core radius for aug-charge                              
                                                                                
   Atomic configuration                                                         
    8 entries                                                                   
     n  l   j            E        occ.                                          
     1  0  0.50     -6993.8440   2.0000                                         
     2  0  0.50      -814.6047   2.0000                                         
     2  1  1.50      -693.3689   6.0000                                         
     3  0  0.50       -89.4732   2.0000                                         
     3  1  1.50       -55.6373   6.0000                                         
     3  2  2.50        -3.8151   7.0000                                         
     4  0  0.50        -4.2551   1.0000                                         
     4  3  2.50        -1.3606   0.0000                                         
   Description                                                                  
     l       E           TYP  RCUT    TYP  RCUT                                 
     1    -55.6372668     23  2.000                                             
     1     -5.4423304     23  2.000                                             
     2     -3.8151096     23  2.200                                             
     2     -5.1756922     23  2.200                                             
     0     -4.2550951     23  2.200                                             
     0     27.2116520     23  2.200                                             
     3     -1.3605826     23  2.200                                             
  local pseudopotential read in
  partial core-charges read in
  partial kinetic energy density read in
  atomic valenz-charges read in
  non local Contribution for L=           1  read in
    real space projection operators read in
  non local Contribution for L=           1  read in
    real space projection operators read in
  non local Contribution for L=           2  read in
    real space projection operators read in
  non local Contribution for L=           2  read in
    real space projection operators read in
  non local Contribution for L=           0  read in
    real space projection operators read in
  non local Contribution for L=           0  read in
    real space projection operators read in
    PAW grid and wavefunctions read in
 
   number of l-projection  operators is LMAX  =           6
   number of lm-projection operators is LMMAX =          18
 

 ----------------------------------------------------------------------------- 
|                                                                             |
|  ADVICE TO THIS USER RUNNING 'VASP/VAMP'   (HEAR YOUR MASTER'S VOICE ...):  |
|                                                                             |
|      You have a (more or less) 'small supercell' and for smaller cells      |
|      it is recommended  to use the reciprocal-space projection scheme!      |
|      The real space optimization is not  efficient for small cells and it   |
|      is also less accurate ...                                              |
|      Therefore set LREAL=.FALSE. in the  INCAR file                         |
|                                                                             |
 ----------------------------------------------------------------------------- 

 Optimization of the real space projectors (new method)

 maximal supplied QI-value         = 17.01
 optimisation between [QCUT,QGAM] = [ 14.63, 29.25] = [ 59.91,239.63] Ry 
 Optimized for a Real-space Cutoff    1.30 Angstroem

   l    n(q)    QCUT    max X(q) W(low)/X(q) W(high)/X(q)  e(spline) 
   1     11    14.626     4.267    0.58E-04    0.63E-04    0.79E-06
   1     11    14.626     5.750    0.85E-04    0.10E-03    0.12E-05
   2     10    14.626    53.656    0.11E-03    0.16E-04    0.40E-06
   2     10    14.626    49.521    0.11E-03    0.16E-04    0.41E-06
   0     11    14.626    31.246    0.28E-04    0.97E-05    0.47E-06
   0     11    14.626    12.201    0.23E-04    0.81E-05    0.39E-06
  PAW_PBE Fe_pv 02Aug2007               :
 energy of atom  1       EATOM=-2457.4239
 kinetic energy error for atom=    0.0011 (will be added to EATOM!!)
 
 
 POSCAR: Fe2                                     
  positions in direct lattice
  No initial velocities read in
 exchange correlation table for  LEXCH =        8
   RHO(1)=    0.500       N(1)  =     2000
   RHO(2)=  100.500       N(2)  =     4000
 


--------------------------------------------------------------------------------------------------------


 ion  position               nearest neighbor table
   1  0.000  0.000  0.000-   2 2.46   2 2.46   2 2.46   2 2.46   2 2.46   2 2.46   2 2.46   2 2.46

   2  0.500  0.500  0.500-   1 2.46   1 2.46   1 2.46   1 2.46   1 2.46   1 2.46   1 2.46   1 2.46

 
  LATTYP: Found a simple cubic cell.
 ALAT       =     2.8400520000
  
  Lattice vectors:
  
 A1 = (   2.8400520000,   0.0000000000,   0.0000000000)
 A2 = (   0.0000000000,   2.8400520000,   0.0000000000)
 A3 = (   0.0000000000,   0.0000000000,   2.8400520000)


Analysis of symmetry for initial positions (statically):
=====================================================================
 Subroutine PRICEL returns following result:
 
  LATTYP: Found a body centered cubic cell.
 ALAT       =     2.8400520000
  
  Lattice vectors:
  
 A1 = (   1.4200260000,   1.4200260000,   1.4200260000)
 A2 = (   1.4200260000,  -1.4200260000,  -1.4200260000)
 A3 = (  -1.4200260000,   1.4200260000,  -1.4200260000)
 
   2 primitive cells build up your supercell.
 

 Routine SETGRP: Setting up the symmetry group for a 
 simple cubic supercell.


 Subroutine GETGRP returns: Found 48 space group operations
 (whereof 48 operations were pure point group operations)
 out of a pool of 48 trial point group operations.


The static configuration has the point symmetry O_h .


Analysis of symmetry for dynamics (positions and initial velocities):
=====================================================================
 Subroutine PRICEL returns following result:
 
  LATTYP: Found a body centered cubic cell.
 ALAT       =     2.8400520000
  
  Lattice vectors:
  
 A1 = (   1.4200260000,   1.4200260000,   1.4200260000)
 A2 = (   1.4200260000,  -1.4200260000,  -1.4200260000)
 A3 = (  -1.4200260000,   1.4200260000,  -1.4200260000)
 
   2 primitive cells build up your supercell.
 

 Routine SETGRP: Setting up the symmetry group for a 
 simple cubic supercell.


 Subroutine GETGRP returns: Found 48 space group operations
 (whereof 48 operations were pure point group operations)
 out of a pool of 48 trial point group operations.


The dynamic configuration has the point symmetry O_h .


Analysis of structural, dynamic, and magnetic symmetry:
=====================================================================
 Subroutine PRICEL returns following result:
 
  LATTYP: Found a body centered cubic cell.
 ALAT       =     2.8400520000
  
  Lattice vectors:
  
 A1 = (   1.4200260000,   1.4200260000,   1.4200260000)
 A2 = (   1.4200260000,  -1.4200260000,  -1.4200260000)
 A3 = (  -1.4200260000,   1.4200260000,  -1.4200260000)
 
   2 primitive cells build up your supercell.
 

 Routine SETGRP: Setting up the symmetry group for a 
 simple cubic supercell.


 Subroutine GETGRP returns: Found 48 space group operations
 (whereof 48 operations were pure point group operations)
 out of a pool of 48 trial point group operations.


The magnetic configuration has the point symmetry O_h .


 Subroutine INISYM returns: Found 48 space group operations
 (whereof 48 operations are pure point group operations),
 and found     2 'primitive' translations

 
 
 KPOINTS: pymatgen with grid density = 2166 / numb

Automatic generation of k-mesh.
Space group operators:
 irot       det(A)        alpha          n_x          n_y          n_z        tau_x        tau_y        tau_z
    1     1.000000     0.000000     1.000000     0.000000     0.000000     0.000000     0.000000     0.000000
    2    -1.000000     0.000000     1.000000     0.000000     0.000000     0.000000     0.000000     0.000000
    3     1.000000   120.000000    -0.577350    -0.577350    -0.577350     0.000000     0.000000     0.000000
    4    -1.000000   120.000000    -0.577350    -0.577350    -0.577350     0.000000     0.000000     0.000000
    5     1.000000   120.000000     0.577350     0.577350     0.577350     0.000000     0.000000     0.000000
    6    -1.000000   120.000000     0.577350     0.577350     0.577350     0.000000     0.000000     0.000000
    7     1.000000    90.000000     0.000000     0.000000    -1.000000     0.000000     0.000000     0.000000
    8    -1.000000    90.000000     0.000000     0.000000    -1.000000     0.000000     0.000000     0.000000
    9     1.000000   180.000000     0.000000     0.707107     0.707107     0.000000     0.000000     0.000000
   10    -1.000000   180.000000     0.000000     0.707107     0.707107     0.000000     0.000000     0.000000
   11     1.000000    90.000000     0.000000     1.000000     0.000000     0.000000     0.000000     0.000000
   12    -1.000000    90.000000     0.000000     1.000000     0.000000     0.000000     0.000000     0.000000
   13     1.000000   180.000000     0.000000     0.000000     1.000000     0.000000     0.000000     0.000000
   14    -1.000000   180.000000     0.000000     0.000000     1.000000     0.000000     0.000000     0.000000
   15     1.000000   120.000000    -0.577350     0.577350     0.577350     0.000000     0.000000     0.000000
   16    -1.000000   120.000000    -0.577350     0.577350     0.577350     0.000000     0.000000     0.000000
   17     1.000000   120.000000    -0.577350     0.577350    -0.577350     0.000000     0.000000     0.000000
   18    -1.000000   120.000000    -0.577350     0.577350    -0.577350     0.000000     0.000000     0.000000
   19     1.000000    90.000000     0.000000     0.000000     1.000000     0.000000     0.000000     0.000000
   20    -1.000000    90.000000     0.000000     0.000000     1.000000     0.000000     0.000000     0.000000
   21     1.000000    90.000000    -1.000000     0.000000     0.000000     0.000000     0.000000     0.000000
   22    -1.000000    90.000000    -1.000000     0.000000     0.000000     0.000000     0.000000     0.000000
   23     1.000000   180.000000     0.707107     0.000000     0.707107     0.000000     0.000000     0.000000
   24    -1.000000   180.000000     0.707107     0.000000     0.707107     0.000000     0.000000     0.000000
   25     1.000000   120.000000     0.577350    -0.577350     0.577350     0.000000     0.000000     0.000000
   26    -1.000000   120.000000     0.577350    -0.577350     0.577350     0.000000     0.000000     0.000000
   27     1.000000   120.000000    -0.577350    -0.577350     0.577350     0.000000     0.000000     0.000000
   28    -1.000000   120.000000    -0.577350    -0.577350     0.577350     0.000000     0.000000     0.000000
   29     1.000000   180.000000     1.000000     0.000000     0.000000     0.000000     0.000000     0.000000
   30    -1.000000   180.000000     1.000000     0.000000     0.000000     0.000000     0.000000     0.000000
   31     1.000000    90.000000     0.000000    -1.000000     0.000000     0.000000     0.000000     0.000000
   32    -1.000000    90.000000     0.000000    -1.000000     0.000000     0.000000     0.000000     0.000000
   33     1.000000   180.000000     0.707107     0.707107     0.000000     0.000000     0.000000     0.000000
   34    -1.000000   180.000000     0.707107     0.707107     0.000000     0.000000     0.000000     0.000000
   35     1.000000    90.000000     1.000000     0.000000     0.000000     0.000000     0.000000     0.000000
   36    -1.000000    90.000000     1.000000     0.000000     0.000000     0.000000     0.000000     0.000000
   37     1.000000   120.000000     0.577350    -0.577350    -0.577350     0.000000     0.000000     0.000000
   38    -1.000000   120.000000     0.577350    -0.577350    -0.577350     0.000000     0.000000     0.000000
   39     1.000000   180.000000     0.000000     1.000000     0.000000     0.000000     0.000000     0.000000
   40    -1.000000   180.000000     0.000000     1.000000     0.000000     0.000000     0.000000     0.000000
   41     1.000000   120.000000     0.577350     0.577350    -0.577350     0.000000     0.000000     0.000000
   42    -1.000000   120.000000     0.577350     0.577350    -0.577350     0.000000     0.000000     0.000000
   43     1.000000   180.000000     0.000000    -0.707107     0.707107     0.000000     0.000000     0.000000
   44    -1.000000   180.000000     0.000000    -0.707107     0.707107     0.000000     0.000000     0.000000
   45     1.000000   180.000000     0.707107    -0.707107     0.000000     0.000000     0.000000     0.000000
   46    -1.000000   180.000000     0.707107    -0.707107     0.000000     0.000000     0.000000     0.000000
   47     1.000000   180.000000     0.707107     0.000000    -0.707107     0.000000     0.000000     0.000000
   48    -1.000000   180.000000     0.707107     0.000000    -0.707107     0.000000     0.000000     0.000000
 
 Subroutine IBZKPT returns following result:
 ===========================================
 
 Found     35 irreducible k-points:
 
 Following reciprocal coordinates:
            Coordinates               Weight
  0.050000  0.050000  0.050000      8.000000
  0.150000  0.050000  0.050000     24.000000
  0.250000  0.050000  0.050000     24.000000
  0.350000  0.050000  0.050000     24.000000
  0.450000  0.050000  0.050000     24.000000
  0.150000  0.150000  0.050000     24.000000
  0.250000  0.150000  0.050000     48.000000
  0.350000  0.150000  0.050000     48.000000
  0.450000  0.150000  0.050000     48.000000
  0.250000  0.250000  0.050000     24.000000
  0.350000  0.250000  0.050000     48.000000
  0.450000  0.250000  0.050000     48.000000
  0.350000  0.350000  0.050000     24.000000
  0.450000  0.350000  0.050000     48.000000
  0.450000  0.450000  0.050000     24.000000
  0.150000  0.150000  0.150000      8.000000
  0.250000  0.150000  0.150000     24.000000
  0.350000  0.150000  0.150000     24.000000
  0.450000  0.150000  0.150000     24.000000
  0.250000  0.250000  0.150000     24.000000
  0.350000  0.250000  0.150000     48.000000
  0.450000  0.250000  0.150000     48.000000
  0.350000  0.350000  0.150000     24.000000
  0.450000  0.350000  0.150000     48.000000
  0.450000  0.450000  0.150000     24.000000
  0.250000  0.250000  0.250000      8.000000
  0.350000  0.250000  0.250000     24.000000
  0.450000  0.250000  0.250000     24.000000
  0.350000  0.350000  0.250000     24.000000
  0.450000  0.350000  0.250000     48.000000
  0.450000  0.450000  0.250000     24.000000
  0.350000  0.350000  0.350000      8.000000
  0.450000  0.350000  0.350000     24.000000
  0.450000  0.450000  0.350000     24.000000
  0.450000  0.450000  0.450000      8.000000
 
 Following cartesian coordinates:
            Coordinates               Weight
  0.017605  0.017605  0.017605      8.000000
  0.052816  0.017605  0.017605     24.000000
  0.088027  0.017605  0.017605     24.000000
  0.123237  0.017605  0.017605     24.000000
  0.158448  0.017605  0.017605     24.000000
  0.052816  0.052816  0.017605     24.000000
  0.088027  0.052816  0.017605     48.000000
  0.123237  0.052816  0.017605     48.000000
  0.158448  0.052816  0.017605     48.000000
  0.088027  0.088027  0.017605     24.000000
  0.123237  0.088027  0.017605     48.000000
  0.158448  0.088027  0.017605     48.000000
  0.123237  0.123237  0.017605     24.000000
  0.158448  0.123237  0.017605     48.000000
  0.158448  0.158448  0.017605     24.000000
  0.052816  0.052816  0.052816      8.000000
  0.088027  0.052816  0.052816     24.000000
  0.123237  0.052816  0.052816     24.000000
  0.158448  0.052816  0.052816     24.000000
  0.088027  0.088027  0.052816     24.000000
  0.123237  0.088027  0.052816     48.000000
  0.158448  0.088027  0.052816     48.000000
  0.123237  0.123237  0.052816     24.000000
  0.158448  0.123237  0.052816     48.000000
  0.158448  0.158448  0.052816     24.000000
  0.088027  0.088027  0.088027      8.000000
  0.123237  0.088027  0.088027     24.000000
  0.158448  0.088027  0.088027     24.000000
  0.123237  0.123237  0.088027     24.000000
  0.158448  0.123237  0.088027     48.000000
  0.158448  0.158448  0.088027     24.000000
  0.123237  0.123237  0.123237      8.000000
  0.158448  0.123237  0.123237     24.000000
  0.158448  0.158448  0.123237     24.000000
  0.158448  0.158448  0.158448      8.000000
 
 TETIRR: Found    466 inequivalent tetrahedra from     6000


--------------------------------------------------------------------------------------------------------




 Dimension of arrays:
   k-points           NKPTS =     35   k-points in BZ     NKDIM =     35   number of bands    NBANDS=     24
   number of dos      NEDOS =    301   number of ions     NIONS =      2
   non local maximal  LDIM  =      6   non local SUM 2l+1 LMDIM =     18
   total plane-waves  NPLWV =  21952
   max r-space proj   IRMAX =   8783   max aug-charges    IRDMAX=  28578
   dimension x,y,z NGX =    28 NGY =   28 NGZ =   28
   dimension x,y,z NGXF=    56 NGYF=   56 NGZF=   56
   support grid    NGXF=    56 NGYF=   56 NGZF=   56
   ions per type =               2
   NGX,Y,Z   is equivalent  to a cutoff of  16.39, 16.39, 16.39 a.u.
   NGXF,Y,Z  is equivalent  to a cutoff of  32.78, 32.78, 32.78 a.u.

 SYSTEM =  unknown system                          
 POSCAR =  Fe2                                     

 Startparameter for this run:
   NWRITE =      2    write-flag & timer
   PREC   = accura    normal or accurate (medium, high low for compatibility)
   ISTART =      0    job   : 0-new  1-cont  2-samecut
   ICHARG =      2    charge: 1-file 2-atom 10-const
   ISPIN  =      2    spin polarized calculation?
   LNONCOLLINEAR =      F non collinear calculations
   LSORBIT =      F    spin-orbit coupling
   INIWAV =      1    electr: 0-lowe 1-rand  2-diag
   LASPH  =      F    aspherical Exc in radial PAW
   METAGGA=      F    non-selfconsistent MetaGGA calc.

 Electronic Relaxation 1
   ENCUT  =  820.0 eV  60.27 Ry    7.76 a.u.   6.63  6.63  6.63*2*pi/ulx,y,z
   ENINI  =  820.0     initial cutoff
   ENAUG  =  578.3 eV  augmentation charge cutoff
   NELM   =    100;   NELMIN=  2; NELMDL= -5     # of ELM steps 
   EDIFF  = 0.1E-06   stopping-criterion for ELM
   LREAL  =      T    real-space projection
   NLSPLINE    = F    spline interpolate recip. space projectors
   LCOMPAT=      F    compatible to vasp.4.4
   GGA_COMPAT  = T    GGA compatible to vasp.4.4-vasp.4.6
   LMAXPAW     = -100 max onsite density
   LMAXMIX     =    2 max onsite mixed and CHGCAR
   VOSKOWN=      0    Vosko Wilk Nusair interpolation
   ROPT   =   -0.00025
 Ionic relaxation
   EDIFFG = 0.1E-05   stopping-criterion for IOM
   NSW    =      0    number of steps for IOM
   NBLOCK =      1;   KBLOCK =      1    inner block; outer block 
   IBRION =     -1    ionic relax: 0-MD 1-quasi-New 2-CG
   NFREE  =      0    steps in history (QN), initial steepest desc. (CG)
   ISIF   =      3    stress and relaxation
   IWAVPR =     10    prediction:  0-non 1-charg 2-wave 3-comb
   ISYM   =      2    0-nonsym 1-usesym 2-fastsym
   LCORR  =      T    Harris-Foulkes like correction to forces

   POTIM  = 0.5000    time-step for ionic-motion
   TEIN   =    0.0    initial temperature
   TEBEG  =    0.0;   TEEND  =   0.0 temperature during run
   SMASS  =  -3.00    Nose mass-parameter (am)
   estimated Nose-frequenzy (Omega)   =  0.10E-29 period in steps =****** mass=  -0.184E-27a.u.
   SCALEE = 1.0000    scale energy and forces
   NPACO  =    256;   APACO  = 16.0  distance and # of slots for P.C.
   PSTRESS=    0.0 pullay stress

  Mass of Ions in am
   POMASS =  55.85
  Ionic Valenz
   ZVAL   =  14.00
  Atomic Wigner-Seitz radii
   RWIGS  =  -1.00
  virtual crystal weights 
   VCA    =   1.00
   NELECT =      28.0000    total number of electrons
   NUPDOWN=      -1.0000    fix difference up-down

 DOS related values:
   EMIN   =  10.00;   EMAX   =-10.00  energy-range for DOS
   EFERMI =   0.00
   ISMEAR =    -5;   SIGMA  =   0.05  broadening in eV -4-tet -1-fermi 0-gaus

 Electronic relaxation 2 (details)
   IALGO  =     38    algorithm
   LDIAG  =      T    sub-space diagonalisation (order eigenvalues)
   LSUBROT=      F    optimize rotation matrix (better conditioning)
   TURBO    =      0    0=normal 1=particle mesh
   IRESTART =      0    0=no restart 2=restart with 2 vectors
   NREBOOT  =      0    no. of reboots
   NMIN     =      0    reboot dimension
   EREF     =   0.00    reference energy to select bands
   IMIX   =      4    mixing-type and parameters
     AMIX     =   0.40;   BMIX     =  1.00
     AMIX_MAG =   1.60;   BMIX_MAG =  1.00
     AMIN     =   0.10
     WC   =   100.;   INIMIX=   1;  MIXPRE=   1;  MAXMIX= -45

 Intra band minimization:
   WEIMIN = 0.0000     energy-eigenvalue tresh-hold
   EBREAK =  0.10E-08  absolut break condition
   DEPER  =   0.30     relativ break condition  

   TIME   =   0.40     timestep for ELM

  volume/ion in A,a.u.               =      11.45        77.29
  Fermi-wavevector in a.u.,A,eV,Ry     =   1.750389  3.307755 41.686364  3.063861
  Thomas-Fermi vector in A             =   2.821117
 
 Write flags
   LWAVE        =      F    write WAVECAR
   LDOWNSAMPLE  =      F    k-point downsampling of WAVECAR
   LCHARG       =      F    write CHGCAR
   LVTOT        =      F    write LOCPOT, total local potential
   LVHAR        =      F    write LOCPOT, Hartree potential only
   LELF         =      F    write electronic localiz. function (ELF)
   LORBIT       =     11    0 simple, 1 ext, 2 COOP (PROOUT), +10 PAW based schemes


 Dipole corrections
   LMONO  =      F    monopole corrections only (constant potential shift)
   LDIPOL =      F    correct potential (dipole corrections)
   IDIPOL =      0    1-x, 2-y, 3-z, 4-all directions 
   EPSILON=  1.0000000 bulk dielectric constant

 Exchange correlation treatment:
   GGA     =    --    GGA type
   LEXCH   =     8    internal setting for exchange type
   VOSKOWN=      0    Vosko Wilk Nusair interpolation
   LHFCALC =     F    Hartree Fock is set to
   LHFONE  =     F    Hartree Fock one center treatment
   AEXX    =    0.0000 exact exchange contribution

 Linear response parameters
   LEPSILON=     F    determine dielectric tensor
   LRPA    =     F    only Hartree local field effects (RPA)
   LNABLA  =     F    use nabla operator in PAW spheres
   LVEL    =     F    velocity operator in full k-point grid
   LINTERFAST=   F  fast interpolation
   KINTER  =     0    interpolate to denser k-point grid
   CSHIFT  =0.1000    complex shift for real part using Kramers Kronig
   OMEGAMAX=  -1.0    maximum frequency
   DEG_THRESHOLD= 0.2000000E-02 threshold for treating states as degnerate
   RTIME   =   -0.100 relaxation time in fs
  (WPLASMAI=    0.000 imaginary part of plasma frequency in eV, 0.658/RTIME)
   DFIELD  = 0.0000000 0.0000000 0.0000000 field for delta impulse in time
 
 Orbital magnetization related:
   ORBITALMAG=     F  switch on orbital magnetization
   LCHIMAG   =     F  perturbation theory with respect to B field
   DQ        =  0.001000  dq finite difference perturbation B field
   LLRAUG    =     F  two centre corrections for induced B field



--------------------------------------------------------------------------------------------------------


 Static calculation
 charge density and potential will be updated during run
 spin polarized calculation
 Variant of blocked Davidson
 Davidson routine will perform the subspace rotation
 perform sub-space diagonalisation
    after iterative eigenvector-optimisation
 modified Broyden-mixing scheme, WC =      100.0
 initial mixing is a Kerker type mixing with AMIX =  0.4000 and BMIX =      1.0000
 Hartree-type preconditioning will be used
 using additional bands           10
 real space projection scheme for non local part
 use partial core corrections
 calculate Harris-corrections to forces 
   (improved forces if not selfconsistent)
 use gradient corrections 
 use of overlap-Matrix (Vanderbilt PP)
 Fermi weights with tetrahedron method with Bloechl corrections


--------------------------------------------------------------------------------------------------------


  energy-cutoff  :      820.00
  volume of cell :       22.91
      direct lattice vectors                 reciprocal lattice vectors
     2.840052000  0.000000000  0.000000000     0.352106229  0.000000000  0.000000000
     0.000000000  2.840052000  0.000000000     0.000000000  0.352106229  0.000000000
     0.000000000  0.000000000  2.840052000     0.000000000  0.000000000  0.352106229

  length of vectors
     2.840052000  2.840052000  2.840052000     0.352106229  0.352106229  0.352106229


 
 k-points in units of 2pi/SCALE and weight: pymatgen with grid density = 2166 / numb
   0.01760531  0.01760531  0.01760531       0.008
   0.05281593  0.01760531  0.01760531       0.024
   0.08802656  0.01760531  0.01760531       0.024
   0.12323718  0.01760531  0.01760531       0.024
   0.15844780  0.01760531  0.01760531       0.024
   0.05281593  0.05281593  0.01760531       0.024
   0.08802656  0.05281593  0.01760531       0.048
   0.12323718  0.05281593  0.01760531       0.048
   0.15844780  0.05281593  0.01760531       0.048
   0.08802656  0.08802656  0.01760531       0.024
   0.12323718  0.08802656  0.01760531       0.048
   0.15844780  0.08802656  0.01760531       0.048
   0.12323718  0.12323718  0.01760531       0.024
   0.15844780  0.12323718  0.01760531       0.048
   0.15844780  0.15844780  0.01760531       0.024
   0.05281593  0.05281593  0.05281593       0.008
   0.08802656  0.05281593  0.05281593       0.024
   0.12323718  0.05281593  0.05281593       0.024
   0.15844780  0.05281593  0.05281593       0.024
   0.08802656  0.08802656  0.05281593       0.024
   0.12323718  0.08802656  0.05281593       0.048
   0.15844780  0.08802656  0.05281593       0.048
   0.12323718  0.12323718  0.05281593       0.024
   0.15844780  0.12323718  0.05281593       0.048
   0.15844780  0.15844780  0.05281593       0.024
   0.08802656  0.08802656  0.08802656       0.008
   0.12323718  0.08802656  0.08802656       0.024
   0.15844780  0.08802656  0.08802656       0.024
   0.12323718  0.12323718  0.08802656       0.024
   0.15844780  0.12323718  0.08802656       0.048
   0.15844780  0.15844780  0.08802656       0.024
   0.12323718  0.12323718  0.12323718       0.008
   0.15844780  0.12323718  0.12323718       0.024
   0.15844780  0.15844780  0.12323718       0.024
   0.15844780  0.15844780  0.15844780       0.008
 
 k-points in reciprocal lattice and weights: pymatgen with grid density = 2166 / numb
   0.05000000  0.05000000  0.05000000       0.008
   0.15000000  0.05000000  0.05000000       0.024
   0.25000000  0.05000000  0.05000000       0.024
   0.35000000  0.05000000  0.05000000       0.024
   0.45000000  0.05000000  0.05000000       0.024
   0.15000000  0.15000000  0.05000000       0.024
   0.25000000  0.15000000  0.05000000       0.048
   0.35000000  0.15000000  0.05000000       0.048
   0.45000000  0.15000000  0.05000000       0.048
   0.25000000  0.25000000  0.05000000       0.024
   0.35000000  0.25000000  0.05000000       0.048
   0.45000000  0.25000000  0.05000000       0.048
   0.35000000  0.35000000  0.05000000       0.024
   0.45000000  0.35000000  0.05000000       0.048
   0.45000000  0.45000000  0.05000000       0.024
   0.15000000  0.15000000  0.15000000       0.008
   0.25000000  0.15000000  0.15000000       0.024
   0.35000000  0.15000000  0.15000000       0.024
   0.45000000  0.15000000  0.15000000       0.024
   0.25000000  0.25000000  0.15000000       0.024
   0.35000000  0.25000000  0.15000000       0.048
   0.45000000  0.25000000  0.15000000       0.048
   0.35000000  0.35000000  0.15000000       0.024
   0.45000000  0.35000000  0.15000000       0.048
   0.45000000  0.45000000  0.15000000       0.024
   0.25000000  0.25000000  0.25000000       0.008
   0.35000000  0.25000000  0.25000000       0.024
   0.45000000  0.25000000  0.25000000       0.024
   0.35000000  0.35000000  0.25000000       0.024
   0.45000000  0.35000000  0.25000000       0.048
   0.45000000  0.45000000  0.25000000       0.024
   0.35000000  0.35000000  0.35000000       0.008
   0.45000000  0.35000000  0.35000000       0.024
   0.45000000  0.45000000  0.35000000       0.024
   0.45000000  0.45000000  0.45000000       0.008
 
 position of ions in fractional coordinates (direct lattice) 
   0.00000000  0.00000000  0.00000000
   0.50000000  0.50000000  0.50000000
 
 position of ions in cartesian coordinates  (Angst):
   0.00000000  0.00000000  0.00000000
   1.42002600  1.42002600  1.42002600
 


--------------------------------------------------------------------------------------------------------


 k-point  1 :   0.0500 0.0500 0.0500  plane waves:    1228
 k-point  2 :   0.1500 0.0500 0.0500  plane waves:    1236
 k-point  3 :   0.2500 0.0500 0.0500  plane waves:    1235
 k-point  4 :   0.3500 0.0500 0.0500  plane waves:    1216
 k-point  5 :   0.4500 0.0500 0.0500  plane waves:    1218
 k-point  6 :   0.1500 0.1500 0.0500  plane waves:    1241
 k-point  7 :   0.2500 0.1500 0.0500  plane waves:    1228
 k-point  8 :   0.3500 0.1500 0.0500  plane waves:    1221
 k-point  9 :   0.4500 0.1500 0.0500  plane waves:    1217
 k-point 10 :   0.2500 0.2500 0.0500  plane waves:    1222
 k-point 11 :   0.3500 0.2500 0.0500  plane waves:    1219
 k-point 12 :   0.4500 0.2500 0.0500  plane waves:    1221
 k-point 13 :   0.3500 0.3500 0.0500  plane waves:    1218
 k-point 14 :   0.4500 0.3500 0.0500  plane waves:    1222
 k-point 15 :   0.4500 0.4500 0.0500  plane waves:    1220
 k-point 16 :   0.1500 0.1500 0.1500  plane waves:    1231
 k-point 17 :   0.2500 0.1500 0.1500  plane waves:    1226
 k-point 18 :   0.3500 0.1500 0.1500  plane waves:    1219
 k-point 19 :   0.4500 0.1500 0.1500  plane waves:    1215
 k-point 20 :   0.2500 0.2500 0.1500  plane waves:    1220
 k-point 21 :   0.3500 0.2500 0.1500  plane waves:    1217
 k-point 22 :   0.4500 0.2500 0.1500  plane waves:    1221
 k-point 23 :   0.3500 0.3500 0.1500  plane waves:    1227
 k-point 24 :   0.4500 0.3500 0.1500  plane waves:    1221
 k-point 25 :   0.4500 0.4500 0.1500  plane waves:    1219
 k-point 26 :   0.2500 0.2500 0.2500  plane waves:    1226
 k-point 27 :   0.3500 0.2500 0.2500  plane waves:    1222
 k-point 28 :   0.4500 0.2500 0.2500  plane waves:    1217
 k-point 29 :   0.3500 0.3500 0.2500  plane waves:    1217
 k-point 30 :   0.4500 0.3500 0.2500  plane waves:    1216
 k-point 31 :   0.4500 0.4500 0.2500  plane waves:    1225
 k-point 32 :   0.3500 0.3500 0.3500  plane waves:    1226
 k-point 33 :   0.4500 0.3500 0.3500  plane waves:    1218
 k-point 34 :   0.4500 0.4500 0.3500  plane waves:    1219
 k-point 35 :   0.4500 0.4500 0.4500  plane waves:    1223

 maximum and minimum number of plane-waves per node :       324      295

 maximum number of plane-waves:      1241
 maximum index in each direction: 
   IXMAX=    6   IYMAX=    6   IZMAX=    6
   IXMIN=   -7   IYMIN=   -7   IZMIN=   -7


 real space projection operators:
  total allocation   :       2358.28 KBytes
  max/ min on nodes  :        593.44        585.70


 parallel 3D FFT for wavefunctions:
    minimum data exchange during FFTs selected (reduces bandwidth)
 parallel 3D FFT for charge:
    minimum data exchange during FFTs selected (reduces bandwidth)


 total amount of memory used by VASP MPI-rank0    34141. kBytes
=======================================================================

   base      :      30000. kBytes
   nonlr-proj:       1014. kBytes
   fftplans  :        477. kBytes
   grid      :       1141. kBytes
   one-center:         31. kBytes
   wavefun   :       1478. kBytes
 
     INWAV:  cpu time    0.0000: real time    0.0001
 Broyden mixing: mesh for mixing (old mesh)
   NGX = 13   NGY = 13   NGZ = 13
  (NGX  = 56   NGY  = 56   NGZ  = 56)
  gives a total of   2197 points

 initial charge density was supplied:
 charge density of overlapping atoms calculated
 number of electron      28.0000000 magnetization      10.0000000
 keeping initial charge density in first step


--------------------------------------------------------------------------------------------------------


 Maximum index for non-local projection operator         2118
 Maximum index for augmentation-charges         1986 (set IRDMAX)


--------------------------------------------------------------------------------------------------------


 First call to EWALD:  gamma=   0.624
 Maximum number of real-space cells 3x 3x 3
 Maximum number of reciprocal cells 3x 3x 3

    FEWALD:  cpu time    0.0013: real time    0.0013


--------------------------------------- Iteration      1(   1)  ---------------------------------------


    POTLOK:  cpu time    0.0136: real time    0.0160
    SETDIJ:  cpu time    0.0070: real time    0.0070
     EDDAV:  cpu time    0.5175: real time    0.5209
 BZINTS: Fermi energy: 21.764412; 28.000000 electrons
         Band energy: -64.384626;  BLOECHL correction: -0.188968
       DOS:  cpu time    0.0334: real time    0.0335
    --------------------------------------------
      LOOP:  cpu time    0.5714: real time    0.5774

 eigenvalue-minimisations  :  3384
 total energy-change (2. order) : 0.2580437E+03  (-0.2267764E+04)
 number of electron      28.0000000 magnetization      10.0000000
 augmentation part       28.0000000 magnetization      10.0000000

 Free energy of the ion-electron system (eV)
  ---------------------------------------------------
  alpha Z        PSCENC =       218.87048721
  Ewald energy   TEWEN  =     -3616.56080017
  -Hartree energ DENC   =     -1162.86386254
  -exchange      EXHF   =         0.00000000
  -V(xc)+E(xc)   XCENC  =       147.54621443
  PAW double counting   =      3997.93860218    -4177.34792201
  entropy T*S    EENTRO =         0.00000000
  eigenvalues    EBANDS =       -64.38462563
  atomic energy  EATOM  =      4914.84557001
  Solvation  Ediel_sol  =         0.00000000
  ---------------------------------------------------
  free energy    TOTEN  =       258.04366348 eV

  energy without entropy =      258.04366348  energy(sigma->0) =      258.04366348


--------------------------------------------------------------------------------------------------------




--------------------------------------- Iteration      1(   2)  ---------------------------------------


     EDDAV:  cpu time    0.5214: real time    0.5269
 BZINTS: Fermi energy: 12.213766; 28.000000 electrons
         Band energy:-330.983384;  BLOECHL correction: -0.072867
       DOS:  cpu time    0.0317: real time    0.0318
    --------------------------------------------
      LOOP:  cpu time    0.5531: real time    0.5587

 eigenvalue-minimisations  :  3432
 total energy-change (2. order) :-0.2665988E+03  (-0.2556049E+03)
 number of electron      28.0000000 magnetization      10.0000000
 augmentation part       28.0000000 magnetization      10.0000000

 Free energy of the ion-electron system (eV)
  ---------------------------------------------------
  alpha Z        PSCENC =       218.87048721
  Ewald energy   TEWEN  =     -3616.56080017
  -Hartree energ DENC   =     -1162.86386254
  -exchange      EXHF   =         0.00000000
  -V(xc)+E(xc)   XCENC  =       147.54621443
  PAW double counting   =      3997.93860218    -4177.34792201
  entropy T*S    EENTRO =         0.00000000
  eigenvalues    EBANDS =      -330.98338439
  atomic energy  EATOM  =      4914.84557001
  Solvation  Ediel_sol  =         0.00000000
  ---------------------------------------------------
  free energy    TOTEN  =        -8.55509528 eV

  energy without entropy =       -8.55509528  energy(sigma->0) =       -8.55509528


--------------------------------------------------------------------------------------------------------




--------------------------------------- Iteration      1(   3)  ---------------------------------------


     EDDAV:  cpu time    0.5343: real time    0.5360
 BZINTS: Fermi energy: 12.037024; 28.000000 electrons
         Band energy:-338.635643;  BLOECHL correction: -0.071286
       DOS:  cpu time    0.0343: real time    0.0343
    --------------------------------------------
      LOOP:  cpu time    0.5685: real time    0.5704

 eigenvalue-minimisations  :  3600
 total energy-change (2. order) :-0.7652258E+01  (-0.7636117E+01)
 number of electron      28.0000000 magnetization      10.0000000
 augmentation part       28.0000000 magnetization      10.0000000

 Free energy of the ion-electron system (eV)
  ---------------------------------------------------
  alpha Z        PSCENC =       218.87048721
  Ewald energy   TEWEN  =     -3616.56080017
  -Hartree energ DENC   =     -1162.86386254
  -exchange      EXHF   =         0.00000000
  -V(xc)+E(xc)   XCENC  =       147.54621443
  PAW double counting   =      3997.93860218    -4177.34792201
  entropy T*S    EENTRO =         0.00000000
  eigenvalues    EBANDS =      -338.63564251
  atomic energy  EATOM  =      4914.84557001
  Solvation  Ediel_sol  =         0.00000000
  ---------------------------------------------------
  free energy    TOTEN  =       -16.20735340 eV

  energy without entropy =      -16.20735340  energy(sigma->0) =      -16.20735340


--------------------------------------------------------------------------------------------------------




--------------------------------------- Iteration      1(   4)  ---------------------------------------


     EDDAV:  cpu time    0.5789: real time    0.5808
 BZINTS: Fermi energy: 12.036513; 28.000000 electrons
         Band energy:-338.701899;  BLOECHL correction: -0.071275
       DOS:  cpu time    0.0305: real time    0.0306
    --------------------------------------------
      LOOP:  cpu time    0.6094: real time    0.6114

 eigenvalue-minimisations  :  3936
 total energy-change (2. order) :-0.6625666E-01  (-0.6626287E-01)
 number of electron      28.0000000 magnetization      10.0000000
 augmentation part       28.0000000 magnetization      10.0000000

 Free energy of the ion-electron system (eV)
  ---------------------------------------------------
  alpha Z        PSCENC =       218.87048721
  Ewald energy   TEWEN  =     -3616.56080017
  -Hartree energ DENC   =     -1162.86386254
  -exchange      EXHF   =         0.00000000
  -V(xc)+E(xc)   XCENC  =       147.54621443
  PAW double counting   =      3997.93860218    -4177.34792201
  entropy T*S    EENTRO =         0.00000000
  eigenvalues    EBANDS =      -338.70189917
  atomic energy  EATOM  =      4914.84557001
  Solvation  Ediel_sol  =         0.00000000
  ---------------------------------------------------
  free energy    TOTEN  =       -16.27361006 eV

  energy without entropy =      -16.27361006  energy(sigma->0) =      -16.27361006


--------------------------------------------------------------------------------------------------------




--------------------------------------- Iteration      1(   5)  ---------------------------------------


     EDDAV:  cpu time    0.5405: real time    0.5418
 BZINTS: Fermi energy: 12.036511; 28.000000 electrons
         Band energy:-338.703131;  BLOECHL correction: -0.071275
       DOS:  cpu time    0.0324: real time    0.0325
    CHARGE:  cpu time    0.0226: real time    0.0227
    MIXING:  cpu time    0.0005: real time    0.0007
    --------------------------------------------
      LOOP:  cpu time    0.5960: real time    0.5977

 eigenvalue-minimisations  :  3588
 total energy-change (2. order) :-0.1231647E-02  (-0.1231689E-02)
 number of electron      27.9999985 magnetization       4.3574438
 augmentation part       15.9045766 magnetization       2.8336542

 Broyden mixing:
  rms(total) = 0.24992E+01    rms(broyden)= 0.24992E+01
  rms(prec ) = 0.39514E+01
  weight for this iteration     100.00

 Free energy of the ion-electron system (eV)
  ---------------------------------------------------
  alpha Z        PSCENC =       218.87048721
  Ewald energy   TEWEN  =     -3616.56080017
  -Hartree energ DENC   =     -1162.86386254
  -exchange      EXHF   =         0.00000000
  -V(xc)+E(xc)   XCENC  =       147.54621443
  PAW double counting   =      3997.93860218    -4177.34792201
  entropy T*S    EENTRO =         0.00000000
  eigenvalues    EBANDS =      -338.70313081
  atomic energy  EATOM  =      4914.84557001
  Solvation  Ediel_sol  =         0.00000000
  ---------------------------------------------------
  free energy    TOTEN  =       -16.27484170 eV

  energy without entropy =      -16.27484170  energy(sigma->0) =      -16.27484170


--------------------------------------------------------------------------------------------------------




--------------------------------------- Iteration      1(   6)  ---------------------------------------


    POTLOK:  cpu time    0.0105: real time    0.0108
    SETDIJ:  cpu time    0.0055: real time    0.0055
     EDDAV:  cpu time    0.5072: real time    0.5088
 BZINTS: Fermi energy:  9.265676; 28.000000 electrons
         Band energy:-409.591515;  BLOECHL correction: -0.036200
       DOS:  cpu time    0.0330: real time    0.0331
    CHARGE:  cpu time    0.0219: real time    0.0219
    MIXING:  cpu time    0.0005: real time    0.0005
    --------------------------------------------
      LOOP:  cpu time    0.5786: real time    0.5807

 eigenvalue-minimisations  :  3420
 total energy-change (2. order) :-0.1842969E+00  (-0.7492256E+00)
 number of electron      27.9999984 magnetization       4.5319900
 augmentation part       17.0680140 magnetization       3.5497495

 Broyden mixing:
  rms(total) = 0.69120E+00    rms(broyden)= 0.69120E+00
  rms(prec ) = 0.86636E+00
  weight for this iteration     100.00

 eigenvalues of (default mixing * dielectric matrix)
  average eigenvalue GAMMA=   0.8370
  0.8370

 Free energy of the ion-electron system (eV)
  ---------------------------------------------------
  alpha Z        PSCENC =       218.87048721
  Ewald energy   TEWEN  =     -3616.56080017
  -Hartree energ DENC   =     -1089.08735189
  -exchange      EXHF   =         0.00000000
  -V(xc)+E(xc)   XCENC  =       140.63841739
  PAW double counting   =      4113.87435613    -4289.44830190
  entropy T*S    EENTRO =         0.00000000
  eigenvalues    EBANDS =      -409.59151534
  atomic energy  EATOM  =      4914.84557001
  Solvation  Ediel_sol  =         0.00000000
  ---------------------------------------------------
  free energy    TOTEN  =       -16.45913856 eV

  energy without entropy =      -16.45913856  energy(sigma->0) =      -16.45913856


--------------------------------------------------------------------------------------------------------




--------------------------------------- Iteration      1(   7)  ---------------------------------------


    POTLOK:  cpu time    0.0102: real time    0.0103
    SETDIJ:  cpu time    0.0052: real time    0.0052
     EDDAV:  cpu time    0.5049: real time    0.5061
 BZINTS: Fermi energy:  9.762143; 28.000000 electrons
         Band energy:-395.207705;  BLOECHL correction: -0.033725
       DOS:  cpu time    0.0330: real time    0.0331
    CHARGE:  cpu time    0.0219: real time    0.0220
    MIXING:  cpu time    0.0004: real time    0.0004
    --------------------------------------------
      LOOP:  cpu time    0.5757: real time    0.5771

 eigenvalue-minimisations  :  3408
 total energy-change (2. order) :-0.5453880E-01  (-0.6148489E-01)
 number of electron      27.9999985 magnetization       4.4437499
 augmentation part       16.7744616 magnetization       3.5267355

 Broyden mixing:
  rms(total) = 0.43078E+00    rms(broyden)= 0.43078E+00
  rms(prec ) = 0.52587E+00
  weight for this iteration     100.00

 eigenvalues of (default mixing * dielectric matrix)
  average eigenvalue GAMMA=   0.7673
  0.9881  0.5466

 Free energy of the ion-electron system (eV)
  ---------------------------------------------------
  alpha Z        PSCENC =       218.87048721
  Ewald energy   TEWEN  =     -3616.56080017
  -Hartree energ DENC   =     -1099.07742161
  -exchange      EXHF   =         0.00000000
  -V(xc)+E(xc)   XCENC  =       141.33090602
  PAW double counting   =      4219.84807901    -4400.56279257
  entropy T*S    EENTRO =         0.00000000
  eigenvalues    EBANDS =      -395.20770526
  atomic energy  EATOM  =      4914.84557001
  Solvation  Ediel_sol  =         0.00000000
  ---------------------------------------------------
  free energy    TOTEN  =       -16.51367736 eV

  energy without entropy =      -16.51367736  energy(sigma->0) =      -16.51367736


--------------------------------------------------------------------------------------------------------




--------------------------------------- Iteration      1(   8)  ---------------------------------------


    POTLOK:  cpu time    0.0102: real time    0.0105
    SETDIJ:  cpu time    0.0052: real time    0.0052
     EDDAV:  cpu time    0.5513: real time    0.5529
 BZINTS: Fermi energy:  9.688597; 28.000000 electrons
         Band energy:-397.472091;  BLOECHL correction: -0.033980
       DOS:  cpu time    0.0329: real time    0.0330
    CHARGE:  cpu time    0.0220: real time    0.0221
    MIXING:  cpu time    0.0004: real time    0.0004
    --------------------------------------------
      LOOP:  cpu time    0.6220: real time    0.6240

 eigenvalue-minimisations  :  3744
 total energy-change (2. order) :-0.9719820E-02  (-0.1515282E-02)
 number of electron      27.9999985 magnetization       4.3699281
 augmentation part       16.8105658 magnetization       3.4531530

 Broyden mixing:
  rms(total) = 0.13690E+00    rms(broyden)= 0.13690E+00
  rms(prec ) = 0.21419E+00
  weight for this iteration     100.00

 eigenvalues of (default mixing * dielectric matrix)
  average eigenvalue GAMMA=   1.0474
  1.6985  0.8570  0.5868

 Free energy of the ion-electron system (eV)
  ---------------------------------------------------
  alpha Z        PSCENC =       218.87048721
  Ewald energy   TEWEN  =     -3616.56080017
  -Hartree energ DENC   =     -1095.16208110
  -exchange      EXHF   =         0.00000000
  -V(xc)+E(xc)   XCENC  =       141.10688574
  PAW double counting   =      4267.86854159    -4450.01990979
  entropy T*S    EENTRO =         0.00000000
  eigenvalues    EBANDS =      -397.47209068
  atomic energy  EATOM  =      4914.84557001
  Solvation  Ediel_sol  =         0.00000000
  ---------------------------------------------------
  free energy    TOTEN  =       -16.52339718 eV

  energy without entropy =      -16.52339718  energy(sigma->0) =      -16.52339718


--------------------------------------------------------------------------------------------------------




--------------------------------------- Iteration      1(   9)  ---------------------------------------


    POTLOK:  cpu time    0.0103: real time    0.0104
    SETDIJ:  cpu time    0.0052: real time    0.0053
     EDDAV:  cpu time    0.5418: real time    0.5435
 BZINTS: Fermi energy:  9.610469; 28.000000 electrons
         Band energy:-399.762198;  BLOECHL correction: -0.034532
       DOS:  cpu time    0.0321: real time    0.0321
    CHARGE:  cpu time    0.0217: real time    0.0217
    MIXING:  cpu time    0.0004: real time    0.0004
    --------------------------------------------
      LOOP:  cpu time    0.6114: real time    0.6134

 eigenvalue-minimisations  :  3684
 total energy-change (2. order) : 0.8278280E-02  (-0.5259911E-03)
 number of electron      27.9999984 magnetization       4.4017702
 augmentation part       16.8467488 magnetization       3.4830879

 Broyden mixing:
  rms(total) = 0.33697E-01    rms(broyden)= 0.33697E-01
  rms(prec ) = 0.45954E-01
  weight for this iteration     100.00

 eigenvalues of (default mixing * dielectric matrix)
  average eigenvalue GAMMA=   1.1854
  2.3388  1.0620  0.6994  0.6413

 Free energy of the ion-electron system (eV)
  ---------------------------------------------------
  alpha Z        PSCENC =       218.87048721
  Ewald energy   TEWEN  =     -3616.56080017
  -Hartree energ DENC   =     -1090.25333024
  -exchange      EXHF   =         0.00000000
  -V(xc)+E(xc)   XCENC  =       140.86353355
  PAW double counting   =      4344.35347013    -4528.87185132
  entropy T*S    EENTRO =         0.00000000
  eigenvalues    EBANDS =      -399.76219807
  atomic energy  EATOM  =      4914.84557001
  Solvation  Ediel_sol  =         0.00000000
  ---------------------------------------------------
  free energy    TOTEN  =       -16.51511890 eV

  energy without entropy =      -16.51511890  energy(sigma->0) =      -16.51511890


--------------------------------------------------------------------------------------------------------




--------------------------------------- Iteration      1(  10)  ---------------------------------------


    POTLOK:  cpu time    0.0102: real time    0.0104
    SETDIJ:  cpu time    0.0052: real time    0.0052
     EDDAV:  cpu time    0.5052: real time    0.5064
 BZINTS: Fermi energy:  9.624907; 28.000000 electrons
         Band energy:-399.220708;  BLOECHL correction: -0.034691
       DOS:  cpu time    0.0329: real time    0.0330
    CHARGE:  cpu time    0.0239: real time    0.0240
    MIXING:  cpu time    0.0006: real time    0.0006
    --------------------------------------------
      LOOP:  cpu time    0.5780: real time    0.5795

 eigenvalue-minimisations  :  3408
 total energy-change (2. order) : 0.1984914E-03  (-0.2241297E-03)
 number of electron      27.9999985 magnetization       4.4065440
 augmentation part       16.8347497 magnetization       3.4851056

 Broyden mixing:
  rms(total) = 0.44149E-02    rms(broyden)= 0.44149E-02
  rms(prec ) = 0.54491E-02
  weight for this iteration     100.00

 eigenvalues of (default mixing * dielectric matrix)
  average eigenvalue GAMMA=   1.1291
  2.4317  1.0999  0.7831  0.6972  0.6338

 Free energy of the ion-electron system (eV)
  ---------------------------------------------------
  alpha Z        PSCENC =       218.87048721
  Ewald energy   TEWEN  =     -3616.56080017
  -Hartree energ DENC   =     -1089.86920496
  -exchange      EXHF   =         0.00000000
  -V(xc)+E(xc)   XCENC  =       140.87092609
  PAW double counting   =      4373.14187574    -4558.59306623
  entropy T*S    EENTRO =         0.00000000
  eigenvalues    EBANDS =      -399.22070809
  atomic energy  EATOM  =      4914.84557001
  Solvation  Ediel_sol  =         0.00000000
  ---------------------------------------------------
  free energy    TOTEN  =       -16.51492041 eV

  energy without entropy =      -16.51492041  energy(sigma->0) =      -16.51492041


--------------------------------------------------------------------------------------------------------




--------------------------------------- Iteration      1(  11)  ---------------------------------------


    POTLOK:  cpu time    0.0113: real time    0.0117
    SETDIJ:  cpu time    0.0055: real time    0.0055
     EDDAV:  cpu time    0.5313: real time    0.5330
 BZINTS: Fermi energy:  9.623338; 28.000000 electrons
         Band energy:-399.253140;  BLOECHL correction: -0.034708
       DOS:  cpu time    0.0330: real time    0.0330
    CHARGE:  cpu time    0.0220: real time    0.0220
    MIXING:  cpu time    0.0005: real time    0.0005
    --------------------------------------------
      LOOP:  cpu time    0.6036: real time    0.6057

 eigenvalue-minimisations  :  3576
 total energy-change (2. order) :-0.6008280E-04  (-0.5003078E-05)
 number of electron      27.9999985 magnetization       4.4059470
 augmentation part       16.8353072 magnetization       3.4847690

 Broyden mixing:
  rms(total) = 0.24165E-02    rms(broyden)= 0.24165E-02
  rms(prec ) = 0.32624E-02
  weight for this iteration     100.00

 eigenvalues of (default mixing * dielectric matrix)
  average eigenvalue GAMMA=   1.2958
  2.3067  2.3067  1.0749  0.6331  0.7557  0.6976

 Free energy of the ion-electron system (eV)
  ---------------------------------------------------
  alpha Z        PSCENC =       218.87048721
  Ewald energy   TEWEN  =     -3616.56080017
  -Hartree energ DENC   =     -1089.86156615
  -exchange      EXHF   =         0.00000000
  -V(xc)+E(xc)   XCENC  =       140.87323925
  PAW double counting   =      4374.35361904    -4559.78238987
  entropy T*S    EENTRO =         0.00000000
  eigenvalues    EBANDS =      -399.25313981
  atomic energy  EATOM  =      4914.84557001
  Solvation  Ediel_sol  =         0.00000000
  ---------------------------------------------------
  free energy    TOTEN  =       -16.51498049 eV

  energy without entropy =      -16.51498049  energy(sigma->0) =      -16.51498049


--------------------------------------------------------------------------------------------------------




--------------------------------------- Iteration      1(  12)  ---------------------------------------


    POTLOK:  cpu time    0.0104: real time    0.0107
    SETDIJ:  cpu time    0.0053: real time    0.0053
     EDDAV:  cpu time    0.5742: real time    0.5757
 BZINTS: Fermi energy:  9.621810; 28.000000 electrons
         Band energy:-399.287474;  BLOECHL correction: -0.034720
       DOS:  cpu time    0.0338: real time    0.0339
    CHARGE:  cpu time    0.0220: real time    0.0221
    MIXING:  cpu time    0.0005: real time    0.0005
    --------------------------------------------
      LOOP:  cpu time    0.6462: real time    0.6482

 eigenvalue-minimisations  :  3912
 total energy-change (2. order) :-0.8175975E-05  (-0.5065011E-06)
 number of electron      27.9999985 magnetization       4.4056781
 augmentation part       16.8360189 magnetization       3.4847679

 Broyden mixing:
  rms(total) = 0.95408E-03    rms(broyden)= 0.95408E-03
  rms(prec ) = 0.13564E-02
  weight for this iteration     100.00

 eigenvalues of (default mixing * dielectric matrix)
  average eigenvalue GAMMA=   1.2317
  2.3891  2.3891  1.0837  0.7903  0.7163  0.6267  0.6267

 Free energy of the ion-electron system (eV)
  ---------------------------------------------------
  alpha Z        PSCENC =       218.87048721
  Ewald energy   TEWEN  =     -3616.56080017
  -Hartree energ DENC   =     -1089.91342933
  -exchange      EXHF   =         0.00000000
  -V(xc)+E(xc)   XCENC  =       140.87593608
  PAW double counting   =      4375.41555529    -4560.76083424
  entropy T*S    EENTRO =         0.00000000
  eigenvalues    EBANDS =      -399.28747352
  atomic energy  EATOM  =      4914.84557001
  Solvation  Ediel_sol  =         0.00000000
  ---------------------------------------------------
  free energy    TOTEN  =       -16.51498867 eV

  energy without entropy =      -16.51498867  energy(sigma->0) =      -16.51498867


--------------------------------------------------------------------------------------------------------




--------------------------------------- Iteration      1(  13)  ---------------------------------------


    POTLOK:  cpu time    0.0103: real time    0.0106
    SETDIJ:  cpu time    0.0052: real time    0.0052
     EDDAV:  cpu time    0.5187: real time    0.5199
 BZINTS: Fermi energy:  9.622416; 28.000000 electrons
         Band energy:-399.274952;  BLOECHL correction: -0.034712
       DOS:  cpu time    0.0303: real time    0.0304
    CHARGE:  cpu time    0.0216: real time    0.0216
    MIXING:  cpu time    0.0005: real time    0.0005
    --------------------------------------------
      LOOP:  cpu time    0.5865: real time    0.5883

 eigenvalue-minimisations  :  3528
 total energy-change (2. order) : 0.6752023E-05  (-0.1297672E-06)
 number of electron      27.9999985 magnetization       4.4054788
 augmentation part       16.8357147 magnetization       3.4844583

 Broyden mixing:
  rms(total) = 0.24871E-03    rms(broyden)= 0.24871E-03
  rms(prec ) = 0.34020E-03
  weight for this iteration     100.00

 eigenvalues of (default mixing * dielectric matrix)
  average eigenvalue GAMMA=   1.2902
  2.5176  2.4451  1.4857  1.0645  0.8084  0.6259  0.6872  0.6872

 Free energy of the ion-electron system (eV)
  ---------------------------------------------------
  alpha Z        PSCENC =       218.87048721
  Ewald energy   TEWEN  =     -3616.56080017
  -Hartree energ DENC   =     -1089.92045772
  -exchange      EXHF   =         0.00000000
  -V(xc)+E(xc)   XCENC  =       140.87583380
  PAW double counting   =      4375.54008662    -4560.89074955
  entropy T*S    EENTRO =         0.00000000
  eigenvalues    EBANDS =      -399.27495211
  atomic energy  EATOM  =      4914.84557001
  Solvation  Ediel_sol  =         0.00000000
  ---------------------------------------------------
  free energy    TOTEN  =       -16.51498191 eV

  energy without entropy =      -16.51498191  energy(sigma->0) =      -16.51498191


--------------------------------------------------------------------------------------------------------




--------------------------------------- Iteration      1(  14)  ---------------------------------------


    POTLOK:  cpu time    0.0102: real time    0.0103
    SETDIJ:  cpu time    0.0052: real time    0.0052
     EDDAV:  cpu time    0.4332: real time    0.4347
 BZINTS: Fermi energy:  9.622659; 28.000000 electrons
         Band energy:-399.270044;  BLOECHL correction: -0.034711
       DOS:  cpu time    0.0338: real time    0.0339
    CHARGE:  cpu time    0.0221: real time    0.0221
    MIXING:  cpu time    0.0006: real time    0.0006
    --------------------------------------------
      LOOP:  cpu time    0.5051: real time    0.5068

 eigenvalue-minimisations  :  2676
 total energy-change (2. order) : 0.1565269E-05  (-0.1560061E-07)
 number of electron      27.9999985 magnetization       4.4054962
 augmentation part       16.8355991 magnetization       3.4844417

 Broyden mixing:
  rms(total) = 0.65931E-04    rms(broyden)= 0.65928E-04
  rms(prec ) = 0.86408E-04
  weight for this iteration     100.00

 eigenvalues of (default mixing * dielectric matrix)
  average eigenvalue GAMMA=   1.2119
  2.6078  2.4651  1.2909  1.0506  0.8269  0.6325  0.6630  0.6852  0.6852

 Free energy of the ion-electron system (eV)
  ---------------------------------------------------
  alpha Z        PSCENC =       218.87048721
  Ewald energy   TEWEN  =     -3616.56080017
  -Hartree energ DENC   =     -1089.92291779
  -exchange      EXHF   =         0.00000000
  -V(xc)+E(xc)   XCENC  =       140.87566769
  PAW double counting   =      4375.54089841    -4560.89384215
  entropy T*S    EENTRO =         0.00000000
  eigenvalues    EBANDS =      -399.27004356
  atomic energy  EATOM  =      4914.84557001
  Solvation  Ediel_sol  =         0.00000000
  ---------------------------------------------------
  free energy    TOTEN  =       -16.51498035 eV

  energy without entropy =      -16.51498035  energy(sigma->0) =      -16.51498035


--------------------------------------------------------------------------------------------------------




--------------------------------------- Iteration      1(  15)  ---------------------------------------


    POTLOK:  cpu time    0.0103: real time    0.0104
    SETDIJ:  cpu time    0.0052: real time    0.0052
     EDDAV:  cpu time    0.3334: real time    0.3342
 BZINTS: Fermi energy:  9.622625; 28.000000 electrons
         Band energy:-399.270963;  BLOECHL correction: -0.034711
       DOS:  cpu time    0.0338: real time    0.0339
    --------------------------------------------
      LOOP:  cpu time    0.3828: real time    0.3838

 eigenvalue-minimisations  :  1740
 total energy-change (2. order) :-0.1618173E-07  (-0.1125282E-08)
 number of electron      27.9999985 magnetization       4.4054962
 augmentation part       16.8355991 magnetization       3.4844417

 Free energy of the ion-electron system (eV)
  ---------------------------------------------------
  alpha Z        PSCENC =       218.87048721
  Ewald energy   TEWEN  =     -3616.56080017
  -Hartree energ DENC   =     -1089.92252845
  -exchange      EXHF   =         0.00000000
  -V(xc)+E(xc)   XCENC  =       140.87569978
  PAW double counting   =      4375.53617637    -4560.88862181
  entropy T*S    EENTRO =         0.00000000
  eigenvalues    EBANDS =      -399.27096331
  atomic energy  EATOM  =      4914.84557001
  Solvation  Ediel_sol  =         0.00000000
  ---------------------------------------------------
  free energy    TOTEN  =       -16.51498036 eV

  energy without entropy =      -16.51498036  energy(sigma->0) =      -16.51498036


--------------------------------------------------------------------------------------------------------




 average (electrostatic) potential at core
  the test charge radii are     0.9500
  (the norm of the test charge is              1.0000)
       1 -73.6648       2 -73.6648
 
 
 
 E-fermi :   9.6226     XC(G=0): -13.6242     alpha+bet :-17.4163


 spin component 1

 k-point     1 :       0.0500    0.0500    0.0500
  band No.  band energies     occupation 
      1     -44.5604      1.00000
      2     -44.5604      1.00000
      3     -44.5462      1.00000
      4     -44.2894      1.00000
      5     -44.2747      1.00000
      6     -44.2747      1.00000
      7       1.3981      1.00000
      8       4.9383      1.00000
      9       4.9383      1.00000
     10       7.3047      1.00000
     11       7.3047      1.00000
     12       7.4308      1.00000
     13       8.5803      1.00000
     14       8.5803      1.00000
     15       9.4947      1.00000
     16       9.6871      0.60084
     17       9.6871      0.00979
     18      19.1997      0.00000
     19      19.1997      0.00000
     20      19.4417      0.00000
     21      25.8101      0.00000
     22      25.8101      0.00000
     23      30.6975      0.00000
     24      33.3488      0.00000

 k-point     2 :       0.1500    0.0500    0.0500
  band No.  band energies     occupation 
      1     -44.5664      1.00000
      2     -44.5457      1.00000
      3     -44.5241      1.00000
      4     -44.3212      1.00000
      5     -44.2879      1.00000
      6     -44.2802      1.00000
      7       1.8018      1.00000
      8       5.1062      1.00000
      9       5.1084      1.00000
     10       7.2462      1.00000
     11       7.2945      1.00000
     12       7.5990      1.00000
     13       8.4142      1.00000
     14       8.6553      1.00000
     15       9.1040      1.00000
     16       9.3725      1.02104
     17       9.6656      0.13617
     18      17.0988      0.00000
     19      19.9186      0.00000
     20      20.0957      0.00000
     21      25.9617      0.00000
     22      27.1438      0.00000
     23      31.5526      0.00000
     24      32.1501      0.00000

 k-point     3 :       0.2500    0.0500    0.0500
  band No.  band energies     occupation 
      1     -44.5637      1.00000
      2     -44.5179      1.00000
      3     -44.4933      1.00000
      4     -44.3689      1.00000
      5     -44.3132      1.00000
      6     -44.3002      1.00000
      7       2.5673      1.00000
      8       5.3675      1.00000
      9       5.4274      1.00000
     10       7.2423      1.00000
     11       7.2873      1.00000
     12       7.8415      1.00000
     13       8.1078      1.00000
     14       8.6066      1.00000
     15       8.7946      1.00000
     16       8.8889      1.00000
     17       9.4858      1.03925
     18      14.5756      0.00000
     19      21.1878      0.00000
     20      21.3585      0.00000
     21      26.2944      0.00000
     22      27.9718      0.00000
     23      29.6288      0.00000
     24      31.2960      0.00000

 k-point     4 :       0.3500    0.0500    0.0500
  band No.  band energies     occupation 
      1     -44.5492      1.00000
      2     -44.4800      1.00000
      3     -44.4554      1.00000
      4     -44.4242      1.00000
      5     -44.3486      1.00000
      6     -44.3315      1.00000
      7       3.5893      1.00000
      8       5.5402      1.00000
      9       5.8725      1.00000
     10       7.2457      1.00000
     11       7.3212      1.00000
     12       7.7679      1.00000
     13       8.1303      1.00000
     14       8.1502      1.00000
     15       8.3928      1.00000
     16       9.0191      1.00000
     17       9.2003      1.03865
     18      12.2832      0.00000
     19      22.7945      0.00000
     20      23.0073      0.00000
     21      26.8754      0.00000
     22      27.8748      0.00000
     23      28.6105      0.00000
     24      29.1475      0.00000

 k-point     5 :       0.4500    0.0500    0.0500
  band No.  band energies     occupation 
      1     -44.5204      1.00000
      2     -44.4773      1.00000
      3     -44.4362      1.00000
      4     -44.4131      1.00000
      5     -44.3909      1.00000
      6     -44.3705      1.00000
      7       4.6411      1.00000
      8       5.3582      1.00000
      9       6.3946      1.00000
     10       6.9174      1.00000
     11       7.4990      1.00000
     12       7.7311      1.00000
     13       7.7624      1.00000
     14       7.9854      1.00000
     15       8.4990      1.00000
     16       8.8573      1.00000
     17       9.4832      0.98552
     18      10.5197      0.00000
     19      24.5323      0.00000
     20      24.9046      0.00000
     21      26.2267      0.00000
     22      26.9672      0.00000
     23      27.8211      0.00000
     24      29.2507      0.00000

 k-point     6 :       0.1500    0.1500    0.0500
  band No.  band energies     occupation 
      1     -44.5805      1.00000
      2     -44.5369      1.00000
      3     -44.4917      1.00000
      4     -44.3626      1.00000
      5     -44.2981      1.00000
      6     -44.2747      1.00000
      7       2.1896      1.00000
      8       5.2391      1.00000
      9       5.2979      1.00000
     10       7.0936      1.00000
     11       7.2374      1.00000
     12       7.8699      1.00000
     13       8.4385      1.00000
     14       8.6105      1.00000
     15       8.6246      1.00000
     16       9.1496      1.00691
     17       9.7347      0.03143
     18      17.1959      0.00000
     19      18.2810      0.00000
     20      20.6509      0.00000
     21      26.6282      0.00000
     22      28.5392      0.00000
     23      29.9220      0.00000
     24      31.9695      0.00000

 k-point     7 :       0.2500    0.1500    0.0500
  band No.  band energies     occupation 
      1     -44.5898      1.00000
      2     -44.5113      1.00000
      3     -44.4539      1.00000
      4     -44.4174      1.00000
      5     -44.3211      1.00000
      6     -44.2822      1.00000
      7       2.9160      1.00000
      8       5.4554      1.00000
      9       5.6206      1.00000
     10       6.9881      1.00000
     11       7.1824      1.00000
     12       8.1057      1.00000
     13       8.2001      1.00000
     14       8.2825      1.00000
     15       8.7216      1.00000
     16       8.7243      1.00000
     17       9.6885      0.28927
     18      14.9838      0.00000
     19      19.0120      0.00000
     20      21.7957      0.00000
     21      27.0199      0.00000
     22      27.7478      0.00000
     23      29.9239      0.00000
     24      30.6413      0.00000

 k-point     8 :       0.3500    0.1500    0.0500
  band No.  band energies     occupation 
      1     -44.5857      1.00000
      2     -44.4759      1.00000
      3     -44.4751      1.00000
      4     -44.4132      1.00000
      5     -44.3535      1.00000
      6     -44.3031      1.00000
      7       3.8581      1.00000
      8       5.5955      1.00000
      9       6.0116      1.00000
     10       6.9644      1.00000
     11       7.1188      1.00000
     12       7.6670      1.00000
     13       8.0931      1.00000
     14       8.3376      1.00000
     15       8.5642      1.00000
     16       8.9632      1.00000
     17       9.4967      0.92397
     18      12.6532      0.00000
     19      20.3761      0.00000
     20      23.3121      0.00000
     21      25.6604      0.00000
     22      27.5890      0.00000
     23      28.7791      0.00000
     24      30.9264      0.00000

 k-point     9 :       0.4500    0.1500    0.0500
  band No.  band energies     occupation 
      1     -44.5647      1.00000
      2     -44.5267      1.00000
      3     -44.4348      1.00000
      4     -44.3927      1.00000
      5     -44.3723      1.00000
      6     -44.3344      1.00000
      7       4.7818      1.00000
      8       5.4045      1.00000
      9       6.4367      1.00000
     10       6.8149      1.00000
     11       7.1497      1.00000
     12       7.3556      1.00000
     13       8.0549      1.00000
     14       8.1285      1.00000
     15       8.8893      1.00000
     16       9.2081      1.00000
     17       9.5412      0.77851
     18      10.7643      0.00000
     19      21.9649      0.00000
     20      23.7292      0.00000
     21      25.0473      0.00000
     22      26.8831      0.00000
     23      28.4946      0.00000
     24      29.8474      0.00000

 k-point    10 :       0.2500    0.2500    0.0500
  band No.  band energies     occupation 
      1     -44.6129      1.00000
      2     -44.4907      1.00000
      3     -44.4770      1.00000
      4     -44.4110      1.00000
      5     -44.3388      1.00000
      6     -44.2748      1.00000
      7       3.5389      1.00000
      8       5.5104      1.00000
      9       6.0141      1.00000
     10       6.7713      1.00000
     11       7.1537      1.00000
     12       7.5987      1.00000
     13       8.4262      1.00000
     14       8.4287      1.00000
     15       8.6229      1.00000
     16       8.6648      1.00000
     17       9.8079     -0.03391
     18      14.8630      0.00000
     19      17.4658      0.00000
     20      22.7548      0.00000
     21      25.3834      0.00000
     22      27.3662      0.00000
     23      30.0596      0.00000
     24      32.3851      0.00000

 k-point    11 :       0.3500    0.2500    0.0500
  band No.  band energies     occupation 
      1     -44.6221      1.00000
      2     -44.5352      1.00000
      3     -44.4619      1.00000
      4     -44.3695      1.00000
      5     -44.3642      1.00000
      6     -44.2820      1.00000
      7       4.2636      1.00000
      8       5.4678      1.00000
      9       6.4672      1.00000
     10       6.6639      1.00000
     11       7.1892      1.00000
     12       7.2436      1.00000
     13       8.2727      1.00000
     14       8.4045      1.00000
     15       8.8096      1.00000
     16       9.0698      1.02187
     17       9.7579      0.00400
     18      13.0482      0.00000
     19      18.1035      0.00000
     20      23.1679      0.00000
     21      24.0662      0.00000
     22      27.8480      0.00000
     23      28.7851      0.00000
     24      31.4420      0.00000

 k-point    12 :       0.4500    0.2500    0.0500
  band No.  band energies     occupation 
      1     -44.6125      1.00000
      2     -44.5826      1.00000
      3     -44.4288      1.00000
      4     -44.3951      1.00000
      5     -44.3322      1.00000
      6     -44.3021      1.00000
      7       4.8666      1.00000
      8       5.2596      1.00000
      9       6.6822      1.00000
     10       6.7708      1.00000
     11       7.0121      1.00000
     12       7.2242      1.00000
     13       8.3124      1.00000
     14       8.3953      1.00000
     15       9.1811      1.00000
     16       9.5468      0.95176
     17       9.7287      0.02978
     18      11.1093      0.00000
     19      19.4888      0.00000
     20      21.1931      0.00000
     21      25.5959      0.00000
     22      27.2068      0.00000
     23      28.6470      0.00000
     24      29.8692      0.00000

 k-point    13 :       0.3500    0.3500    0.0500
  band No.  band energies     occupation 
      1     -44.6453      1.00000
      2     -44.5897      1.00000
      3     -44.4425      1.00000
      4     -44.3797      1.00000
      5     -44.3311      1.00000
      6     -44.2749      1.00000
      7       4.6032      1.00000
      8       5.2500      1.00000
      9       6.4671      1.00000
     10       6.7900      1.00000
     11       7.0688      1.00000
     12       7.8005      1.00000
     13       8.3288      1.00000
     14       8.5818      1.00000
     15       8.7312      1.00000
     16       9.5045      0.96287
     17       9.8584     -0.00497
     18      12.6725      0.00000
     19      17.0753      0.00000
     20      20.9326      0.00000
     21      25.1102      0.00000
     22      28.2079      0.00000
     23      28.4080      0.00000
     24      30.7491      0.00000

 k-point    14 :       0.4500    0.3500    0.0500
  band No.  band energies     occupation 
      1     -44.6485      1.00000
      2     -44.6294      1.00000
      3     -44.4207      1.00000
      4     -44.3991      1.00000
      5     -44.3012      1.00000
      6     -44.2818      1.00000
      7       4.8277      1.00000
      8       5.0274      1.00000
      9       6.4158      1.00000
     10       6.5252      1.00000
     11       7.6335      1.00000
     12       8.0156      1.00000
     13       8.4770      1.00000
     14       8.6082      1.00000
     15       9.2344      1.00000
     16       9.7475      0.31704
     17      10.0490      0.00000
     18      11.2874      0.00000
     19      17.6522      0.00000
     20      19.0564      0.00000
     21      26.3162      0.00000
     22      27.4992      0.00000
     23      28.8185      0.00000
     24      29.7273      0.00000

 k-point    15 :       0.4500    0.4500    0.0500
  band No.  band energies     occupation 
      1     -44.6652      1.00000
      2     -44.6586      1.00000
      3     -44.4124      1.00000
      4     -44.4049      1.00000
      5     -44.2817      1.00000
      6     -44.2750      1.00000
      7       4.7955      1.00000
      8       4.8569      1.00000
      9       6.2865      1.00000
     10       6.3240      1.00000
     11       8.3605      1.00000
     12       8.5982      1.00000
     13       8.6193      1.00000
     14       8.7802      1.00000
     15       9.2763      1.00000
     16       9.7024      0.28331
     17      10.4352      0.00000
     18      10.9857      0.00000
     19      16.9429      0.00000
     20      17.5290      0.00000
     21      27.0345      0.00000
     22      27.4880      0.00000
     23      29.0850      0.00000
     24      29.4301      0.00000

 k-point    16 :       0.1500    0.1500    0.1500
  band No.  band energies     occupation 
      1     -44.5648      1.00000
      2     -44.5648      1.00000
      3     -44.4560      1.00000
      4     -44.4002      1.00000
      5     -44.2889      1.00000
      6     -44.2889      1.00000
      7       2.5669      1.00000
      8       5.4264      1.00000
      9       5.4264      1.00000
     10       7.0361      1.00000
     11       7.0361      1.00000
     12       8.0860      1.00000
     13       8.1860      1.00000
     14       8.5281      1.00000
     15       8.5281      1.00000
     16       9.4248      0.99979
     17       9.4248      1.11237
     18      17.8412      0.00000
     19      17.8412      0.00000
     20      19.2371      0.00000
     21      28.7874      0.00000
     22      28.7874      0.00000
     23      29.7386      0.00000
     24      29.7386      0.00000

 k-point    17 :       0.2500    0.1500    0.1500
  band No.  band energies     occupation 
      1     -44.5850      1.00000
      2     -44.5351      1.00000
      3     -44.4515      1.00000
      4     -44.4178      1.00000
      5     -44.3161      1.00000
      6     -44.2884      1.00000
      7       3.2656      1.00000
      8       5.6656      1.00000
      9       5.6998      1.00000
     10       6.9036      1.00000
     11       6.9349      1.00000
     12       7.5732      1.00000
     13       8.3823      1.00000
     14       8.5850      1.00000
     15       8.6826      1.00000
     16       8.9719      1.00000
     17       9.5063      0.95271
     18      15.4701      0.00000
     19      18.9551      0.00000
     20      19.8769      0.00000
     21      27.5256      0.00000
     22      28.5416      0.00000
     23      29.3030      0.00000
     24      30.5092      0.00000

 k-point    18 :       0.3500    0.1500    0.1500
  band No.  band energies     occupation 
      1     -44.5912      1.00000
      2     -44.5045      1.00000
      3     -44.4946      1.00000
      4     -44.3810      1.00000
      5     -44.3540      1.00000
      6     -44.2990      1.00000
      7       4.1487      1.00000
      8       5.8192      1.00000
      9       5.9788      1.00000
     10       6.7953      1.00000
     11       6.9294      1.00000
     12       7.2680      1.00000
     13       8.2260      1.00000
     14       8.5459      1.00000
     15       8.8082      1.00000
     16       9.1279      1.00000
     17       9.4067      0.92706
     18      13.1244      0.00000
     19      20.3548      0.00000
     20      21.0651      0.00000
     21      25.4924      0.00000
     22      26.4578      0.00000
     23      30.1153      0.00000
     24      31.4558      0.00000

 k-point    19 :       0.4500    0.1500    0.1500
  band No.  band energies     occupation 
      1     -44.5795      1.00000
      2     -44.5495      1.00000
      3     -44.4478      1.00000
      4     -44.3993      1.00000
      5     -44.3475      1.00000
      6     -44.3194      1.00000
      7       4.9804      1.00000
      8       5.5623      1.00000
[...]
     19      18.3222      0.00000
     20      20.7971      0.00000
     21      22.3835      0.00000
     22      24.8361      0.00000
     23      26.2510      0.00000
     24      30.1362      0.00000

 k-point    30 :       0.4500    0.3500    0.2500
  band No.  band energies     occupation 
      1     -42.0277      1.00000
      2     -42.0274      1.00000
      3     -41.8762      1.00000
      4     -41.8249      1.00000
      5     -41.7188      1.00000
      6     -41.7145      1.00000
      7       6.7329      1.00000
      8       7.0450      1.00000
      9       7.9675      1.00000
     10       7.9784      1.00000
     11       8.3645      1.00000
     12       8.4913      1.00000
     13      11.1842      0.00000
     14      11.2348      0.00000
     15      11.5151      0.00000
     16      11.5334      0.00000
     17      13.8173      0.00000
     18      14.8897      0.00000
     19      19.1261      0.00000
     20      20.5767      0.00000
     21      21.9129      0.00000
     22      23.4381      0.00000
     23      26.7662      0.00000
     24      28.2365      0.00000

 k-point    31 :       0.4500    0.4500    0.2500
  band No.  band energies     occupation 
      1     -42.0355      1.00000
      2     -42.0349      1.00000
      3     -41.8568      1.00000
      4     -41.8361      1.00000
      5     -41.7251      1.00000
      6     -41.7214      1.00000
      7       6.8530      1.00000
      8       6.9335      1.00000
      9       7.8847      1.00000
     10       7.8996      1.00000
     11       8.6613      1.00000
     12       8.7305      1.00000
     13      11.3010      0.00000
     14      11.3257      0.00000
     15      11.5266      0.00000
     16      11.5392      0.00000
     17      14.4940      0.00000
     18      15.0169      0.00000
     19      18.3897      0.00000
     20      19.0493      0.00000
     21      23.0062      0.00000
     22      24.1212      0.00000
     23      25.2333      0.00000
     24      26.3294      0.00000

 k-point    32 :       0.3500    0.3500    0.3500
  band No.  band energies     occupation 
      1     -42.0117      1.00000
      2     -41.9614      1.00000
      3     -41.9614      1.00000
      4     -41.7728      1.00000
      5     -41.7728      1.00000
      6     -41.7226      1.00000
      7       6.9264      1.00000
      8       7.5004      1.00000
      9       7.9277      1.00000
     10       7.9277      1.00000
     11       8.0742      1.00000
     12       8.0742      1.00000
     13      11.3765      0.00000
     14      11.3765      0.00000
     15      11.4153      0.00000
     16      11.4153      0.00000
     17      13.8656      0.00000
     18      17.4973      0.00000
     19      17.4973      0.00000
     20      19.8866      0.00000
     21      22.8235      0.00000
     22      22.8235      0.00000
     23      24.1464      0.00000
     24      28.0398      0.00000

 k-point    33 :       0.4500    0.3500    0.3500
  band No.  band energies     occupation 
      1     -42.0064      1.00000
      2     -41.9905      1.00000
      3     -41.8987      1.00000
      4     -41.8337      1.00000
      5     -41.7565      1.00000
      6     -41.7377      1.00000
      7       7.2799      1.00000
      8       7.3821      1.00000
      9       7.8723      1.00000
     10       7.9207      1.00000
     11       8.0468      1.00000
     12       8.2171      1.00000
     13      11.3598      0.00000
     14      11.3851      0.00000
     15      11.5029      0.00000
     16      11.5141      0.00000
     17      14.8063      0.00000
     18      16.0277      0.00000
     19      19.1308      0.00000
     20      20.4299      0.00000
     21      20.9114      0.00000
     22      21.6695      0.00000
     23      24.5510      0.00000
     24      26.0869      0.00000

 k-point    34 :       0.4500    0.4500    0.3500
  band No.  band energies     occupation 
      1     -41.9891      1.00000
      2     -41.9780      1.00000
      3     -41.8849      1.00000
      4     -41.8487      1.00000
      5     -41.7791      1.00000
      6     -41.7645      1.00000
      7       7.4284      1.00000
      8       7.4421      1.00000
      9       7.8024      1.00000
     10       7.8454      1.00000
     11       8.1730      1.00000
     12       8.2613      1.00000
     13      11.4437      0.00000
     14      11.4545      0.00000
     15      11.5334      0.00000
     16      11.5377      0.00000
     17      15.8061      0.00000
     18      16.5885      0.00000
     19      18.5409      0.00000
     20      19.5007      0.00000
     21      21.0125      0.00000
     22      22.1183      0.00000
     23      22.9697      0.00000
     24      24.1595      0.00000

 k-point    35 :       0.4500    0.4500    0.4500
  band No.  band energies     occupation 
      1     -41.9443      1.00000
      2     -41.9119      1.00000
      3     -41.9119      1.00000
      4     -41.8433      1.00000
      5     -41.8433      1.00000
      6     -41.8108      1.00000
      7       7.6626      1.00000
      8       7.8092      1.00000
      9       7.8092      1.00000
     10       7.9081      1.00000
     11       7.9534      1.00000
     12       7.9534      1.00000
     13      11.5394      0.00000
     14      11.5394      0.00000
     15      11.5424      0.00000
     16      11.5424      0.00000
     17      17.1204      0.00000
     18      18.3146      0.00000
     19      18.3146      0.00000
     20      20.0019      0.00000
     21      20.1675      0.00000
     22      20.1675      0.00000
     23      21.5184      0.00000
     24      22.3099      0.00000


--------------------------------------------------------------------------------------------------------


 soft charge-density along one line, spin component           1
         0         1         2         3         4         5         6         7         8         9
 total charge-density along one line
 
 soft charge-density along one line, spin component           2
         0         1         2         3         4         5         6         7         8         9
 total charge-density along one line
 
 pseudopotential strength for first ion, spin component:           1
-44.857  -0.000   0.000   7.570   0.000  -0.000  -0.000  -0.000
 -0.000 -44.857   0.000   0.000   7.570  -0.000  -0.000  -0.000
  0.000   0.000 -44.857  -0.000  -0.000   7.570  -0.000  -0.000
  7.570   0.000  -0.000   5.638   0.000  -0.000   0.000   0.000
  0.000   7.570  -0.000   0.000   5.638   0.000   0.000   0.000
 -0.000  -0.000   7.570  -0.000   0.000   5.638   0.000   0.000
 -0.000  -0.000  -0.000   0.000   0.000   0.000  -1.981   0.000
 -0.000  -0.000  -0.000   0.000   0.000   0.000   0.000  -1.981
  0.000  -0.000  -0.000  -0.000   0.000   0.000  -0.000  -0.000
 -0.000  -0.000  -0.000   0.000  -0.000   0.000  -0.000   0.000
  0.000  -0.000   0.000  -0.000   0.000  -0.000   0.000   0.000
 -0.000  -0.000  -0.000  -0.000   0.000   0.000  -2.495   0.000
 -0.000  -0.000  -0.000   0.000   0.000   0.000   0.000  -2.495
  0.000  -0.000  -0.000  -0.000   0.000   0.000  -0.000  -0.000
 -0.000   0.000  -0.000   0.000  -0.000   0.000  -0.000   0.000
  0.000  -0.000  -0.000  -0.000   0.000   0.000   0.000   0.000
  0.000   0.000   0.000   0.000   0.000   0.000  -0.000   0.000
  0.000   0.000   0.000   0.000   0.000  -0.000  -0.000   0.000
 pseudopotential strength for first ion, spin component:           2
-42.886  -0.000   0.000   6.737   0.000  -0.000  -0.000  -0.000
 -0.000 -42.886  -0.000   0.000   6.737   0.000   0.000  -0.000
  0.000  -0.000 -42.886  -0.000   0.000   6.737  -0.000   0.000
  6.737   0.000  -0.000   5.866   0.000  -0.000   0.000   0.000
  0.000   6.737   0.000   0.000   5.866  -0.000  -0.000   0.000
 -0.000   0.000   6.737  -0.000  -0.000   5.866   0.000  -0.000
 -0.000   0.000  -0.000   0.000  -0.000   0.000  -0.455  -0.000
 -0.000  -0.000   0.000   0.000   0.000  -0.000  -0.000  -0.455
  0.000  -0.000  -0.000  -0.000   0.000  -0.000  -0.000  -0.000
  0.000  -0.000  -0.000  -0.000  -0.000   0.000  -0.000   0.000
  0.000  -0.000   0.000  -0.000   0.000  -0.000   0.000   0.000
 -0.000   0.000  -0.000   0.000  -0.000   0.000  -0.995  -0.000
 -0.000  -0.000   0.000   0.000   0.000  -0.000  -0.000  -0.995
  0.000  -0.000   0.000  -0.000   0.000   0.000  -0.000  -0.000
  0.000   0.000  -0.000  -0.000   0.000   0.000  -0.000   0.000
  0.000  -0.000  -0.000  -0.000   0.000   0.000   0.000   0.000
  0.000   0.000   0.000   0.000   0.000   0.000  -0.000   0.000
  0.000   0.000   0.000   0.000   0.000   0.000  -0.000   0.000
 total augmentation occupancy for first ion, spin component:           1
  1.992   0.000   0.000  -0.026   0.000  -0.000   0.000   0.000  -0.000  -0.000   0.000   0.000   0.000   0.000  -0.000   0.000
  0.000   1.992   0.000  -0.000  -0.026   0.000   0.000   0.000   0.000   0.000   0.000  -0.000   0.000   0.000   0.000   0.000
  0.000   0.000   1.992   0.000   0.000  -0.026   0.000   0.000   0.000   0.000   0.000   0.000   0.000   0.000   0.000  -0.000
 -0.026  -0.000   0.000   0.201  -0.000  -0.000   0.000   0.000   0.000   0.000   0.000   0.000   0.000   0.000   0.000  -0.000
  0.000  -0.026   0.000  -0.000   0.201   0.000   0.000   0.000   0.000   0.000   0.000   0.000   0.000   0.000   0.000   0.000
  0.000  -0.000  -0.026  -0.000  -0.000   0.201   0.000   0.000   0.000   0.000   0.000   0.000   0.000   0.000   0.000   0.000
  0.000   0.000   0.000   0.000   0.000   0.000   2.169   0.000   0.000  -0.000   0.000  -1.222  -0.000  -0.000  -0.000  -0.000
  0.000   0.000   0.000   0.000   0.000   0.000  -0.000   2.169   0.000  -0.000   0.000  -0.000  -1.222   0.000  -0.000  -0.000
  0.000   0.000  -0.000   0.000   0.000  -0.000  -0.000   0.000   3.408   0.000   0.000  -0.000   0.000  -2.184   0.000   0.000
  0.000   0.000   0.000   0.000   0.000   0.000  -0.000  -0.000   0.000   2.169  -0.000  -0.000   0.000   0.000  -1.222  -0.000
  0.000   0.000   0.000   0.000   0.000   0.000   0.000   0.000  -0.000  -0.000   3.408  -0.000  -0.000   0.000   0.000  -2.184
  0.000   0.000   0.000   0.000   0.000   0.000  -1.222   0.000  -0.000   0.000  -0.000   1.650   0.000   0.000   0.000   0.000
  0.000   0.000  -0.000   0.000   0.000   0.000  -0.000  -1.222   0.000  -0.000  -0.000   0.000   1.650  -0.000  -0.000   0.000
  0.000   0.000   0.000   0.000   0.000  -0.000  -0.000   0.000  -2.184   0.000   0.000   0.000  -0.000   2.224  -0.000   0.000
  0.000   0.000   0.000   0.000   0.000   0.000   0.000  -0.000   0.000  -1.222   0.000  -0.000   0.000   0.000   1.650   0.000
  0.000   0.000   0.000   0.000   0.000   0.000  -0.000   0.000  -0.000   0.000  -2.184   0.000  -0.000   0.000   0.000   2.224
  0.000   0.000   0.000   0.000   0.000   0.000   0.000   0.000  -0.000   0.000  -0.000   0.000   0.000   0.000  -0.000   0.000
 -0.000  -0.000  -0.000   0.000   0.000   0.000   0.000   0.000  -0.000   0.000  -0.000  -0.000  -0.000   0.000   0.000   0.000
 total augmentation occupancy for first ion, spin component:           2
 -0.002   0.000   0.000  -0.009  -0.000   0.000   0.000   0.000  -0.000   0.000   0.000   0.000   0.000   0.000  -0.000  -0.000
  0.000  -0.002   0.000   0.000  -0.009   0.000   0.000   0.000   0.000   0.000   0.000   0.000   0.000   0.000   0.000   0.000
  0.000   0.000  -0.002   0.000  -0.000  -0.009   0.000   0.000   0.000   0.000   0.000   0.000   0.000   0.000   0.000   0.000
 -0.009   0.000  -0.000  -0.020  -0.000  -0.000   0.000   0.000   0.000   0.000   0.000   0.000   0.000   0.000   0.000   0.000
 -0.000  -0.009  -0.000  -0.000  -0.020  -0.000   0.000   0.000   0.000   0.000   0.000  -0.000   0.000   0.000   0.000   0.000
 -0.000   0.000  -0.009  -0.000   0.000  -0.020   0.000   0.000  -0.000   0.000   0.000   0.000   0.000  -0.000   0.000   0.000
  0.000   0.000   0.000   0.000   0.000   0.000   1.759   0.000  -0.000  -0.000   0.000  -0.662  -0.000  -0.000  -0.000   0.000
  0.000   0.000  -0.000   0.000   0.000   0.000   0.000   1.759  -0.000   0.000  -0.000   0.000  -0.662   0.000   0.000   0.000
 -0.000   0.000  -0.000  -0.000   0.000   0.000  -0.000  -0.000   2.822  -0.000   0.000  -0.000   0.000  -1.163  -0.000   0.000
 -0.000   0.000   0.000   0.000   0.000   0.000  -0.000   0.000  -0.000   1.759  -0.000   0.000   0.000   0.000  -0.662  -0.000
 -0.000   0.000   0.000  -0.000   0.000   0.000   0.000   0.000  -0.000   0.000   2.822   0.000  -0.000   0.000   0.000  -1.163
  0.000  -0.000   0.000   0.000   0.000   0.000  -0.662   0.000   0.000   0.000   0.000  -0.006  -0.000   0.000  -0.000   0.000
  0.000   0.000  -0.000   0.000   0.000   0.000  -0.000  -0.662   0.000  -0.000  -0.000   0.000  -0.006   0.000   0.000  -0.000
  0.000   0.000   0.000  -0.000   0.000   0.000   0.000   0.000  -1.163  -0.000  -0.000   0.000  -0.000   0.239  -0.000  -0.000
  0.000   0.000   0.000   0.000   0.000   0.000  -0.000  -0.000   0.000  -0.662  -0.000   0.000  -0.000  -0.000  -0.006   0.000
  0.000   0.000   0.000   0.000   0.000   0.000   0.000   0.000  -0.000  -0.000  -1.163   0.000  -0.000  -0.000   0.000   0.239
  0.000   0.000   0.000   0.000   0.000   0.000   0.000  -0.000  -0.000   0.000  -0.000  -0.000   0.000   0.000  -0.000  -0.000
 -0.000  -0.000  -0.000   0.000   0.000  -0.000  -0.000   0.000  -0.000  -0.000   0.000   0.000  -0.000   0.000   0.000   0.000


------------------------ aborting loop because EDIFF is reached ----------------------------------------


 


 total charge     
 
# of ion       s       p       d       tot
------------------------------------------
    1        0.385   6.378   6.075  12.837
    2        0.385   6.378   6.075  12.837
--------------------------------------------------
tot          0.770  12.755  12.150  25.675
 


 magnetization (x)
 
# of ion       s       p       d       tot
------------------------------------------
    1       -0.008  -0.042   2.292   2.243
    2       -0.008  -0.042   2.292   2.243
--------------------------------------------------
tot         -0.015  -0.083   4.584   4.485
 
    CHARGE:  cpu time    0.0204: real time    0.0204
    FORLOC:  cpu time    0.0002: real time    0.0002
    FORNL :  cpu time    0.1112: real time    0.1115
    STRESS:  cpu time    0.3308: real time    0.3318
    FORCOR:  cpu time    0.0098: real time    0.0098
    FORHAR:  cpu time    0.0011: real time    0.0012
    MIXING:  cpu time    0.0005: real time    0.0005
    OFIELD:  cpu time    0.0000: real time    0.0000

  FORCE on cell =-STRESS in cart. coord.  units (eV):
  Direction    XX          YY          ZZ          XY          YZ          ZX
  --------------------------------------------------------------------------------------
  Alpha Z   218.87049   218.87049   218.87049
  Ewald   -1205.52018 -1205.52018 -1205.52018    -0.00000    -0.00000    -0.00000
  Hartree   363.30754   363.30754   363.30754    -0.00000    -0.00000    -0.00000
  E(xc)    -179.77971  -179.77971  -179.77971    -0.00000    -0.00000    -0.00000
  Local     289.65803   289.65803   289.65803    -0.00000     0.00000    -0.00000
  n-local   -60.13057   -54.11291   -50.50181     2.76350    -1.55350     0.58529
  augment   285.39277   285.39277   285.39277     0.00000    -0.00000     0.00000
  Kinetic   283.97808   282.52515   281.78599     2.95549    -0.75965    -0.07211
  Fock        0.00000     0.00000     0.00000     0.00000     0.00000     0.00000
  -------------------------------------------------------------------------------------
  Total      -0.22308    -0.22308    -0.22308    -0.00000    -0.00000     0.00000
  in kB     -15.60244   -15.60244   -15.60244    -0.00000    -0.00000     0.00000
  external pressure =      -15.60 kB  Pullay stress =        0.00 kB


 VOLUME and BASIS-vectors are now :
 -----------------------------------------------------------------------------
  energy-cutoff  :      820.00
  volume of cell :       22.91
      direct lattice vectors                 reciprocal lattice vectors
     2.840052000  0.000000000  0.000000000     0.352106229  0.000000000  0.000000000
     0.000000000  2.840052000  0.000000000     0.000000000  0.352106229  0.000000000
     0.000000000  0.000000000  2.840052000     0.000000000  0.000000000  0.352106229

  length of vectors
     2.840052000  2.840052000  2.840052000     0.352106229  0.352106229  0.352106229


 FORCES acting on ions
    electron-ion (+dipol)            ewald-force                    non-local-force                 convergence-correction
 -----------------------------------------------------------------------------------------------
   0.715E-14 -.241E-13 -.500E-13   -.529E-15 -.103E-14 -.897E-14   -.388E-25 0.258E-25 -.258E-25   -.791E-15 -.511E-14 -.139E-13
   0.901E-12 0.747E-11 0.864E-11   0.472E-14 0.447E-14 0.926E-14   0.129E-25 0.258E-25 -.258E-25   -.833E-13 -.133E-13 -.989E-13
 -----------------------------------------------------------------------------------------------
   0.908E-12 0.745E-11 0.859E-11   0.419E-14 0.343E-14 0.284E-15   -.258E-25 0.517E-25 -.517E-25   -.841E-13 -.184E-13 -.113E-12
 
 
 POSITION                                       TOTAL-FORCE (eV/Angst)
 -----------------------------------------------------------------------------------
      0.00000      0.00000      0.00000         0.000000     -0.000000      0.000000
      1.42003      1.42003      1.42003        -0.000000      0.000000     -0.000000
 -----------------------------------------------------------------------------------
    total drift:                                0.000000      0.000000      0.000000


--------------------------------------------------------------------------------------------------------



  FREE ENERGIE OF THE ION-ELECTRON SYSTEM (eV)
  ---------------------------------------------------
  free  energy   TOTEN  =       -16.51498036 eV

  energy  without entropy=      -16.51498036  energy(sigma->0) =      -16.51498036
 


--------------------------------------------------------------------------------------------------------


    POTLOK:  cpu time    0.0156: real time    0.0157


--------------------------------------------------------------------------------------------------------


     LOOP+:  cpu time    9.0976: real time    9.1359
    4ORBIT:  cpu time    0.0000: real time    0.0000
 


 total charge     
 
# of ion       s       p       d       tot
------------------------------------------
    1        0.385   6.378   6.075  12.837
    2        0.385   6.378   6.075  12.837
--------------------------------------------------
tot          0.770  12.755  12.150  25.675
 


 magnetization (x)
 
# of ion       s       p       d       tot
------------------------------------------
    1       -0.008  -0.042   2.292   2.243
    2       -0.008  -0.042   2.292   2.243
--------------------------------------------------
tot         -0.015  -0.083   4.584   4.485
 
 BZINTS: Fermi energy:  9.622625; 28.000000 electrons
         Band energy:-399.270963;  BLOECHL correction: -0.034711

 total amount of memory used by VASP MPI-rank0    34141. kBytes
=======================================================================

   base      :      30000. kBytes
   nonlr-proj:       1014. kBytes
   fftplans  :        477. kBytes
   grid      :       1141. kBytes
   one-center:         31. kBytes
   wavefun   :       1478. kBytes
 
  
  
 General timing and accounting informations for this job:
 ========================================================
  
                  Total CPU time used (sec):       10.580
                            User time (sec):       10.378
                          System time (sec):        0.202
                         Elapsed time (sec):       12.709
  
                   Maximum memory used (kb):       61228.
                   Average memory used (kb):           0.
  
                          Minor page faults:        14678
                          Major page faults:            0
                 Voluntary context switches:         1469
