       N       E                     dE             d eps       ncg     rms          rms(c)
DAV:   1     0.763224433019E+03    0.76322E+03   -0.33430E+04  8392   0.259E+03
DAV:   2     0.467736621539E+02   -0.71645E+03   -0.69743E+03  8064   0.687E+02
DAV:   3    -0.135282343969E+02   -0.60302E+02   -0.58575E+02  8520   0.209E+02
DAV:   4    -0.151291164782E+02   -0.16009E+01   -0.15946E+01  8456   0.359E+01
DAV:   5    -0.151645016005E+02   -0.35385E-01   -0.35382E-01  8804   0.525E+00    0.742E+01
DAV:   6    -0.825576979225E+01    0.69087E+01   -0.14073E+02  9448   0.764E+01    0.312E+01
DAV:   7    -0.598490073144E+01    0.22709E+01   -0.21924E+01  8748   0.489E+01    0.532E+00
DAV:   8    -0.624459790975E+01   -0.25970E+00   -0.12078E+00  8212   0.871E+00    0.284E+00
DAV:   9    -0.642215698148E+01   -0.17756E+00   -0.23254E-01  8596   0.264E+00    0.199E+00
DAV:  10    -0.657307732426E+01   -0.15092E+00   -0.16619E-01  8832   0.202E+00    0.174E+00
DAV:  11    -0.679299297531E+01   -0.21992E+00   -0.23618E-01  9488   0.181E+00    0.186E+00
DAV:  12    -0.643591395777E+01    0.35708E+00   -0.18352E+00 10820   0.585E+00    0.544E+00
DAV:  13    -0.524068827039E+01    0.11952E+01   -0.21636E+01 10404   0.132E+01    0.492E+00
DAV:  14    -0.528611343051E+01   -0.45425E-01   -0.34544E-01  8128   0.429E+00    0.424E+00
DAV:  15    -0.527968973020E+01    0.64237E-02   -0.93213E-02  8968   0.164E+00    0.369E+00
DAV:  16    -0.525034407044E+01    0.29346E-01   -0.43329E-01 13492   0.312E+00    0.360E+00
DAV:  17    -0.516847714411E+01    0.81867E-01   -0.28356E-01  8360   0.359E+00    0.246E+00
DAV:  18    -0.504471126865E+01    0.12377E+00   -0.13459E+00  8728   0.586E+00    0.146E+00
DAV:  19    -0.508920713493E+01   -0.44496E-01   -0.72469E-02  8136   0.201E+00    0.121E+00
DAV:  20    -0.612368172227E+01   -0.10345E+01   -0.28019E+01 10152   0.158E+01    0.202E+00
DAV:  21    -0.697628717487E+01   -0.85261E+00   -0.46673E+00  8404   0.892E+00    0.439E+00
DAV:  22    -0.666190621563E+01    0.31438E+00   -0.64562E-01  8156   0.400E+00    0.320E+00
DAV:  23    -0.656935580074E+01    0.92550E-01   -0.77705E-02  9240   0.134E+00    0.288E+00
DAV:  24    -0.694417428531E+01   -0.37482E+00   -0.68227E-01  9404   0.343E+00    0.458E+00
DAV:  25    -0.644778382044E+01    0.49639E+00   -0.14848E+00 10344   0.420E+00    0.303E+00
DAV:  26    -0.585471579134E+01    0.59307E+00   -0.19941E+00  9792   0.466E+00    0.277E+00
DAV:  27    -0.602090239742E+01   -0.16619E+00   -0.11339E-01  8464   0.225E+00    0.257E+00
DAV:  28    -0.518038427668E+01    0.84052E+00   -0.10688E+01 10440   0.891E+00    0.196E+00
DAV:  29    -0.517515155638E+01    0.52327E-02   -0.33957E-01  8160   0.318E+00    0.168E+00
DAV:  30    -0.511618043140E+01    0.58971E-01   -0.48378E-01  9272   0.260E+00    0.162E+00
DAV:  31    -0.498114201489E+01    0.13504E+00   -0.58784E-01  9480   0.348E+00    0.167E+00
DAV:  32    -0.498827252316E+01   -0.71305E-02   -0.21474E-02  8064   0.107E+00    0.154E+00
DAV:  33    -0.499311515938E+01   -0.48426E-02   -0.18954E-04 10712   0.913E-02    0.151E+00
DAV:  34    -0.498857689827E+01    0.45383E-02   -0.49717E-04  8152   0.194E-01    0.142E+00
DAV:  35    -0.497429187156E+01    0.14285E-01   -0.31106E-03  8176   0.492E-01    0.128E+00
DAV:  36    -0.496314199490E+01    0.11150E-01   -0.18575E-03  8272   0.310E-01    0.125E+00
DAV:  37    -0.497354487283E+01   -0.10403E-01   -0.70483E-04 10728   0.211E-01    0.118E+00
DAV:  38    -0.501867653056E+01   -0.45132E-01   -0.14207E-02 10464   0.809E-01    0.101E+00
DAV:  39    -0.501396496265E+01    0.47116E-02   -0.12000E-03  9560   0.272E-01    0.105E+00
DAV:  40    -0.501216638210E+01    0.17986E-02   -0.38708E-05  8368   0.401E-02    0.106E+00
DAV:  41    -0.501097729952E+01    0.11891E-02   -0.17077E-05  8352   0.298E-02    0.105E+00
DAV:  42    -0.501000563466E+01    0.97166E-03   -0.15765E-05  8840   0.325E-02    0.103E+00
DAV:  43    -0.500786713234E+01    0.21385E-02   -0.11132E-04  8456   0.817E-02    0.102E+00
DAV:  44    -0.502262417203E+01   -0.14757E-01   -0.34124E-03  9996   0.335E-01    0.957E-01
DAV:  45    -0.504273693864E+01   -0.20113E-01   -0.58374E-03  9356   0.511E-01    0.937E-01
DAV:  46    -0.506080329594E+01   -0.18066E-01   -0.10415E-02  9392   0.395E-01    0.921E-01
DAV:  47    -0.509533365665E+01   -0.34530E-01   -0.48046E-02 10280   0.929E-01    0.855E-01
DAV:  48    -0.510911315402E+01   -0.13779E-01   -0.10797E-02  8624   0.702E-01    0.686E-01
DAV:  49    -0.515197170580E+01   -0.42859E-01   -0.32594E-01 10056   0.188E+00    0.883E-01
DAV:  50    -0.515050607878E+01    0.14656E-02   -0.86722E-03  8072   0.695E-01    0.693E-01
DAV:  51    -0.519180530764E+01   -0.41299E-01   -0.13106E-01 10536   0.137E+00    0.857E-01
DAV:  52    -0.520346843039E+01   -0.11663E-01   -0.15345E-02  8440   0.788E-01    0.625E-01
DAV:  53    -0.519974122164E+01    0.37272E-02   -0.18967E-03  8120   0.374E-01    0.417E-01
DAV:  54    -0.518990809962E+01    0.98331E-02   -0.42616E-03 10472   0.342E-01    0.407E-01
DAV:  55    -0.519400998147E+01   -0.41019E-02   -0.81428E-04  9144   0.218E-01    0.387E-01
DAV:  56    -0.520474121567E+01   -0.10731E-01   -0.89451E-03  9656   0.454E-01    0.396E-01
DAV:  57    -0.520654736353E+01   -0.18061E-02   -0.73836E-04  8176   0.162E-01    0.380E-01
DAV:  58    -0.521577512776E+01   -0.92278E-02   -0.33280E-03 10040   0.323E-01    0.365E-01
DAV:  59    -0.521838668312E+01   -0.26116E-02   -0.56554E-04  8280   0.145E-01    0.359E-01
DAV:  60    -0.521947431396E+01   -0.10876E-02   -0.18126E-04  9092   0.353E-02    0.428E-01
DAV:  61    -0.518420768484E+01    0.35267E-01   -0.14957E-01  9632   0.147E+00    0.456E-01
DAV:  62    -0.517832720802E+01    0.58805E-02   -0.85636E-03  8232   0.534E-01    0.546E-01
DAV:  63    -0.517030670339E+01    0.80205E-02   -0.18690E-03  8856   0.264E-01    0.597E-01
DAV:  64    -0.517161044745E+01   -0.13037E-02   -0.48310E-04  8096   0.197E-01    0.564E-01
DAV:  65    -0.517360898422E+01   -0.19985E-02   -0.20968E-04  9136   0.922E-02    0.551E-01
DAV:  66    -0.515414619793E+01    0.19463E-01   -0.30974E-02 10608   0.638E-01    0.459E-01
DAV:  67    -0.518292179127E+01   -0.28776E-01   -0.64012E-02 10296   0.108E+00    0.461E-01
DAV:  68    -0.519073916156E+01   -0.78174E-02   -0.57193E-03  8464   0.377E-01    0.418E-01
DAV:  69    -0.518932867842E+01    0.14105E-02   -0.26413E-04  8960   0.132E-01    0.416E-01
DAV:  70    -0.519932043810E+01   -0.99918E-02   -0.46831E-03  9784   0.428E-01    0.374E-01
DAV:  71    -0.522249564160E+01   -0.23175E-01   -0.58094E-02  9544   0.931E-01    0.527E-01
DAV:  72    -0.523122998025E+01   -0.87343E-02   -0.10193E-02  8304   0.351E-01    0.639E-01
DAV:  73    -0.523951398835E+01   -0.82840E-02   -0.32841E-03  8880   0.213E-01    0.710E-01
DAV:  74    -0.523287376087E+01    0.66402E-02   -0.10917E-03  9528   0.229E-01    0.658E-01
DAV:  75    -0.521563735711E+01    0.17236E-01   -0.63940E-02  9704   0.578E-01    0.368E-01
DAV:  76    -0.521203562045E+01    0.36017E-02   -0.11056E-03  8272   0.218E-01    0.389E-01
DAV:  77    -0.520392314717E+01    0.81125E-02   -0.31158E-03  9704   0.303E-01    0.407E-01
DAV:  78    -0.519653424479E+01    0.73889E-02   -0.11301E-02  9248   0.333E-01    0.382E-01
DAV:  79    -0.519652406928E+01    0.10176E-04   -0.20572E-04  8080   0.101E-01    0.389E-01
DAV:  80    -0.519858818848E+01   -0.20641E-02   -0.21202E-04  9808   0.881E-02    0.379E-01
DAV:  81    -0.519951325850E+01   -0.92507E-03   -0.74136E-05  8536   0.459E-02    0.374E-01
DAV:  82    -0.519993739671E+01   -0.42414E-03   -0.13737E-05  7480   0.179E-02    0.372E-01
DAV:  83    -0.519991638106E+01    0.21016E-04   -0.50628E-07  6840   0.569E-03    0.372E-01
DAV:  84    -0.519994175287E+01   -0.25372E-04   -0.36605E-08  4040   0.159E-03    0.372E-01
DAV:  85    -0.519911219549E+01    0.82956E-03   -0.40002E-05  9664   0.395E-02    0.375E-01
DAV:  86    -0.519185616095E+01    0.72560E-02   -0.25312E-03  9672   0.308E-01    0.408E-01
DAV:  87    -0.519289914079E+01   -0.10430E-02   -0.17900E-04  8064   0.113E-01    0.405E-01
DAV:  88    -0.519806816736E+01   -0.51690E-02   -0.11600E-03  9704   0.226E-01    0.376E-01
DAV:  89    -0.521037833903E+01   -0.12310E-01   -0.19224E-02  9576   0.536E-01    0.382E-01
DAV:  90    -0.522118580026E+01   -0.10807E-01   -0.79578E-03  8936   0.390E-01    0.441E-01
DAV:  91    -0.522554044315E+01   -0.43546E-02   -0.56114E-03  8320   0.145E-01    0.512E-01
DAV:  92    -0.522574907241E+01   -0.20863E-03   -0.38404E-05  8960   0.430E-02    0.514E-01
DAV:  93    -0.522589636784E+01   -0.14730E-03   -0.84203E-07  7336   0.758E-03    0.514E-01
DAV:  94    -0.522838539500E+01   -0.24890E-02   -0.19304E-05  9680   0.822E-02    0.513E-01
DAV:  95    -0.522887256958E+01   -0.48717E-03   -0.82880E-05  7328   0.284E-02    0.523E-01
DAV:  96    -0.522905081995E+01   -0.17825E-03   -0.16150E-05  7272   0.945E-03    0.531E-01
DAV:  97    -0.523089323656E+01   -0.18424E-02   -0.17625E-03  9624   0.598E-02    0.635E-01
DAV:  98    -0.524084926618E+01   -0.99560E-02   -0.40989E-03  9488   0.288E-01    0.708E-01
DAV:  99    -0.524621153031E+01   -0.53623E-02   -0.12161E-03  8448   0.147E-01    0.752E-01
DAV: 100    -0.524629470295E+01   -0.83173E-04   -0.23707E-05  8064   0.347E-02    0.750E-01
DAV: 101    -0.525056417850E+01   -0.42695E-02   -0.55698E-04  9800   0.968E-02    0.772E-01
DAV: 102    -0.525117867367E+01   -0.61450E-03   -0.46061E-05  8208   0.367E-02    0.777E-01
DAV: 103    -0.525094605548E+01    0.23262E-03   -0.22148E-06  7144   0.855E-03    0.776E-01
DAV: 104    -0.525150840923E+01   -0.56235E-03   -0.11120E-05  8336   0.134E-02    0.777E-01
DAV: 105    -0.524811290940E+01    0.33955E-02   -0.59568E-04  9832   0.790E-02    0.749E-01
DAV: 106    -0.522722308189E+01    0.20890E-01   -0.28486E-02  9648   0.564E-01    0.501E-01
DAV: 107    -0.522048460707E+01    0.67385E-02   -0.48333E-03  8440   0.288E-01    0.435E-01
DAV: 108    -0.521771107441E+01    0.27735E-02   -0.25524E-03  8280   0.101E-01    0.361E-01
DAV: 109    -0.521292082620E+01    0.47902E-02   -0.54080E-04 10016   0.172E-01    0.365E-01
DAV: 110    -0.521360887381E+01   -0.68805E-03   -0.57299E-05  8064   0.639E-02    0.365E-01
DAV: 111    -0.520612440171E+01    0.74845E-02   -0.22019E-03  9688   0.291E-01    0.381E-01
DAV: 112    -0.520555855208E+01    0.56585E-03   -0.19023E-04  8984   0.877E-02    0.386E-01
DAV: 113    -0.520557650674E+01   -0.17955E-04   -0.85901E-07  7064   0.656E-03    0.386E-01
DAV: 114    -0.520588905696E+01   -0.31255E-03   -0.46678E-06  8280   0.125E-02    0.384E-01
DAV: 115    -0.520553454176E+01    0.35452E-03   -0.62116E-06  8700   0.162E-02    0.385E-01
DAV: 116    -0.521612513026E+01   -0.10591E-01   -0.47009E-03  9720   0.408E-01    0.356E-01
DAV: 117    -0.522501829323E+01   -0.88932E-02   -0.16903E-02  9232   0.315E-01    0.519E-01
DAV: 118    -0.523114908771E+01   -0.61308E-02   -0.35684E-03  8512   0.181E-01    0.638E-01
DAV: 119    -0.524865055840E+01   -0.17501E-01   -0.15456E-02  9944   0.449E-01    0.753E-01
DAV: 120    -0.525960142765E+01   -0.10951E-01   -0.64415E-03  8424   0.253E-01
   1 F= -.52596014E+01 E0= -.52596014E+01  d E =0.000000E+00  mag=     0.0000
