       N       E                     dE             d eps       ncg     rms          rms(c)
DAV:   1     0.442770908640E+03    0.44277E+03   -0.17812E+04 21032   0.314E+03
DAV:   2     0.474948567370E+02   -0.39528E+03   -0.37270E+03 29000   0.394E+02
DAV:   3    -0.261888829085E+02   -0.73684E+02   -0.72656E+02 29596   0.248E+02
DAV:   4    -0.316860153736E+02   -0.54971E+01   -0.53812E+01 33868   0.539E+01
DAV:   5    -0.322348317135E+02   -0.54882E+00   -0.54023E+00 34152   0.157E+01    0.193E+01
DAV:   6    -0.385004883607E+02   -0.62657E+01   -0.11316E+02 29896   0.107E+02    0.235E+01
DAV:   7    -0.387450781515E+02   -0.24459E+00   -0.15852E+01 30376   0.553E+01    0.110E+01
DAV:   8    -0.374676123915E+02    0.12775E+01   -0.46080E+00 30744   0.460E+01    0.484E+00
DAV:   9    -0.376214954708E+02   -0.15388E+00   -0.59826E+00 32880   0.219E+01    0.546E+00
DAV:  10    -0.374335530622E+02    0.18794E+00   -0.28706E+00 30856   0.131E+01    0.210E+00
DAV:  11    -0.374741151973E+02   -0.40562E-01   -0.26913E-01 36736   0.447E+00    0.165E+00
DAV:  12    -0.374683439815E+02    0.57712E-02   -0.53152E-02 33192   0.192E+00    0.103E+00
DAV:  13    -0.374609896032E+02    0.73544E-02   -0.26161E-02 34704   0.141E+00    0.644E-01
DAV:  14    -0.374579406582E+02    0.30489E-02   -0.14184E-02 31368   0.841E-01    0.310E-01
DAV:  15    -0.374574220946E+02    0.51856E-03   -0.49110E-03 32696   0.542E-01    0.108E-01
DAV:  16    -0.374574648932E+02   -0.42799E-04   -0.51448E-04 37124   0.171E-01    0.704E-02
DAV:  17    -0.374575946539E+02   -0.12976E-03   -0.74834E-04 27780   0.223E-01    0.867E-02
DAV:  18    -0.374575389002E+02    0.55754E-04   -0.21199E-04 32644   0.156E-01    0.326E-02
DAV:  19    -0.374575141000E+02    0.24800E-04   -0.50749E-05 27612   0.801E-02    0.120E-02
DAV:  20    -0.374575099283E+02    0.41718E-05   -0.69594E-06 21896   0.350E-02    0.818E-03
DAV:  21    -0.374575062950E+02    0.36333E-05   -0.37538E-06 14016   0.275E-02    0.511E-03
DAV:  22    -0.374575043597E+02    0.19353E-05   -0.31717E-06 13796   0.212E-02    0.331E-03
DAV:  23    -0.374575042934E+02    0.66306E-07   -0.26383E-06 13756   0.215E-02
   1 F= -.37457504E+02 E0= -.37457504E+02  d E =0.000000E+00  mag=     0.0001
