       N       E                     dE             d eps       ncg     rms          rms(c)
DAV:   1     0.745402398554E+02    0.74540E+02   -0.72632E+03  4368   0.145E+03
DAV:   2    -0.142048813582E+02   -0.88745E+02   -0.82469E+02  4256   0.258E+02
DAV:   3    -0.161938828529E+02   -0.19890E+01   -0.19251E+01  4874   0.553E+01
DAV:   4    -0.162235970565E+02   -0.29714E-01   -0.29728E-01  6056   0.522E+00
DAV:   5    -0.162238945838E+02   -0.29753E-03   -0.29809E-03  5044   0.479E-01    0.144E+01
DAV:   6    -0.142610043520E+02    0.19629E+01   -0.16495E+01  4466   0.834E+01    0.797E+00
DAV:   7    -0.139292205726E+02    0.33178E+00   -0.22946E+00  4616   0.297E+01    0.482E+00
DAV:   8    -0.140788378023E+02   -0.14962E+00   -0.15207E-01  5764   0.636E+00    0.217E+00
DAV:   9    -0.140356922215E+02    0.43146E-01   -0.34095E-02  6096   0.277E+00    0.237E+00
DAV:  10    -0.140251948511E+02    0.10497E-01   -0.98193E-04  6022   0.453E-01    0.267E+00
DAV:  11    -0.140702762734E+02   -0.45081E-01   -0.32828E-02  5260   0.303E+00    0.423E-01
DAV:  12    -0.140707290824E+02   -0.45281E-03   -0.98477E-04  6028   0.380E-01    0.155E-01
DAV:  13    -0.140705303578E+02    0.19872E-03   -0.16221E-04  5698   0.207E-01    0.853E-03
DAV:  14    -0.140705157957E+02    0.14562E-04   -0.61959E-06  4790   0.279E-02    0.754E-03
DAV:  15    -0.140705204894E+02   -0.46936E-05   -0.30686E-07  4762   0.677E-03    0.450E-03
DAV:  16    -0.140705291381E+02   -0.86488E-05   -0.18454E-07  3082   0.644E-03    0.518E-04
DAV:  17    -0.140705283604E+02    0.77776E-06   -0.11070E-08  2302   0.143E-03    0.296E-04
DAV:  18    -0.140705291060E+02   -0.74561E-06   -0.27011E-09  2260   0.735E-04    0.726E-05
DAV:  19    -0.140705290539E+02    0.52041E-07   -0.82903E-10  2224   0.291E-04
   1 F= -.14070529E+02 E0= -.14070529E+02  d E =0.000000E+00  mag=     3.1563
