=========================================
SLURM_JOB_ID = 63456895
SLURM_JOB_NODELIST = lnode21
SLURM_GPUS = 
SLURM_CPUS_ON_NODE = 8
SLURM_JOB_PARTITION = lenovo
SLURM_TASK_PID = 4156741
CUDA_VISIBLE_DEVICES = 
==========================================
 running on    8 total cores
 distrk:  each k-point on    8 cores,    1 groups
 distr:  one band on    4 cores,    2 groups
 using from now: INCAR     
 vasp.5.4.4.18Apr17-6-g9f103f2a35 (build Apr 28 2018 00:24:27) complex          
  
 POSCAR found type information on POSCAR  Eu O 
 POSCAR found :  2 types and       2 ions
 scaLAPACK will be used

 ----------------------------------------------------------------------------- 
|                                                                             |
|  ADVICE TO THIS USER RUNNING 'VASP/VAMP'   (HEAR YOUR MASTER'S VOICE ...):  |
|                                                                             |
|      You have a (more or less) 'small supercell' and for smaller cells      |
|      it is recommended  to use the reciprocal-space projection scheme!      |
|      The real space optimization is not  efficient for small cells and it   |
|      is also less accurate ...                                              |
|      Therefore set LREAL=.FALSE. in the  INCAR file                         |
|                                                                             |
 ----------------------------------------------------------------------------- 

 LDA part: xc-table for Pade appr. of Perdew
 POSCAR, INCAR and KPOINTS ok, starting setup
 FFT: planning ...
 WAVECAR not read
 entering main loop
       N       E                     dE             d eps       ncg     rms          rms(c)
DAV:   1     0.138105581710E+03    0.13811E+03   -0.95138E+03  8352   0.241E+03
DAV:   2    -0.619279550365E+01   -0.14430E+03   -0.12675E+03  7440   0.289E+02
DAV:   3    -0.197865167567E+02   -0.13594E+02   -0.13024E+02  7824   0.932E+01
DAV:   4    -0.204703970001E+02   -0.68388E+00   -0.66772E+00 10776   0.190E+01
DAV:   5    -0.204930737325E+02   -0.22677E-01   -0.22632E-01  9452   0.269E+00    0.185E+01
DAV:   6    -0.257131527599E+02   -0.52201E+01   -0.10068E+02 10268   0.108E+02    0.275E+01
DAV:   7    -0.209150649823E+02    0.47981E+01   -0.23403E+01  8684   0.823E+01    0.101E+01
DAV:   8    -0.209363694165E+02   -0.21304E-01   -0.13121E+00  9788   0.997E+00    0.485E+00
DAV:   9    -0.209186297711E+02    0.17740E-01   -0.16404E+00 10728   0.111E+01    0.262E+00
DAV:  10    -0.208627540528E+02    0.55876E-01   -0.22394E-01  9644   0.428E+00    0.953E-01
DAV:  11    -0.208590251653E+02    0.37289E-02   -0.14043E-02  9768   0.117E+00    0.782E-01
DAV:  12    -0.208588612433E+02    0.16392E-03   -0.23797E-02 10208   0.144E+00    0.359E-01
DAV:  13    -0.208591809884E+02   -0.31975E-03   -0.19696E-03  9688   0.287E-01    0.196E-01
DAV:  14    -0.208592806913E+02   -0.99703E-04   -0.14750E-03 10156   0.368E-01    0.789E-02
DAV:  15    -0.208592202564E+02    0.60435E-04   -0.18165E-04  9772   0.108E-01    0.401E-02
DAV:  16    -0.208592409748E+02   -0.20718E-04   -0.19732E-05 10164   0.382E-02    0.133E-02
DAV:  17    -0.208592418803E+02   -0.90551E-06   -0.26869E-06 11388   0.115E-02    0.482E-03
DAV:  18    -0.208592421541E+02   -0.27380E-06   -0.55415E-07  8096   0.520E-03    0.480E-03
DAV:  19    -0.208592404587E+02    0.16954E-05   -0.19059E-07  6264   0.476E-03    0.143E-03
DAV:  20    -0.208592417614E+02   -0.13028E-05   -0.67809E-08  4300   0.275E-03    0.448E-04
DAV:  21    -0.208592415002E+02    0.26121E-06   -0.28607E-08  3820   0.160E-03    0.259E-04
DAV:  22    -0.208592413956E+02    0.10460E-06   -0.13358E-08  3732   0.104E-03    0.212E-04
DAV:  23    -0.208592413172E+02    0.78391E-07   -0.59925E-09  3632   0.833E-04
   1 F= -.20859241E+02 E0= -.20859241E+02  d E =0.000000E+00  mag=     6.9929
