=========================================
SLURM_JOB_ID = 31798350
SLURM_JOB_NODELIST = lnode14
SLURM_GPUS = 
SLURM_CPUS_ON_NODE = 8
SLURM_JOB_PARTITION = lenovo
SLURM_TASK_PID = 2534919
CUDA_VISIBLE_DEVICES = 
==========================================
 running on    8 total cores
 distrk:  each k-point on    8 cores,    1 groups
 distr:  one band on    4 cores,    2 groups
 using from now: INCAR     
 vasp.5.4.4.18Apr17-6-g9f103f2a35 (build Apr 28 2018 00:24:27) complex          
  
 POSCAR found type information on POSCAR  Fe
 POSCAR found :  1 types and       8 ions
 scaLAPACK will be used
 LDA part: xc-table for Pade appr. of Perdew
 POSCAR, INCAR and KPOINTS ok, starting setup
 FFT: planning ...
 WAVECAR not read
 entering main loop
       N       E                     dE             d eps       ncg     rms          rms(c)
DAV:   1     0.538323526289E+03    0.53832E+03   -0.27400E+04  9752   0.220E+03
DAV:   2    -0.127657853759E+02   -0.55109E+03   -0.53822E+03  9728   0.461E+02
DAV:   3    -0.673802946316E+02   -0.54615E+02   -0.49843E+02 14048   0.178E+02
DAV:   4    -0.735326917155E+02   -0.61524E+01   -0.55642E+01 16026   0.546E+01
DAV:   5    -0.739848597761E+02   -0.45217E+00   -0.41227E+00 15140   0.119E+01    0.318E+01
RMM:   6    -0.638846890025E+02    0.10100E+02   -0.98295E+01  9728   0.108E+02    0.168E+01
RMM:   7    -0.735876844475E+02   -0.97030E+01   -0.46046E+01 10130   0.565E+01    0.366E+01
RMM:   8    -0.640898943456E+02    0.94978E+01   -0.18580E+01  9732   0.452E+01    0.121E+01
RMM:   9    -0.651213864966E+02   -0.10315E+01   -0.82887E+00 10772   0.205E+01    0.167E+01
RMM:  10    -0.636838503084E+02    0.14375E+01   -0.15075E+00  9825   0.128E+01    0.359E+00
RMM:  11    -0.640130874673E+02   -0.32924E+00   -0.18220E+00 10977   0.103E+01    0.766E+00
RMM:  12    -0.637133585374E+02    0.29973E+00   -0.61860E-01 10358   0.767E+00    0.180E+00
RMM:  13    -0.637435251905E+02   -0.30167E-01   -0.41330E-01 14981   0.223E+00    0.112E+00
RMM:  14    -0.637488116582E+02   -0.52865E-02   -0.46816E-02 12968   0.115E+00    0.641E-01
RMM:  15    -0.637534990303E+02   -0.46874E-02   -0.30136E-02 14707   0.709E-01    0.429E-01
RMM:  16    -0.637552005532E+02   -0.17015E-02   -0.12441E-02 13975   0.512E-01    0.299E-01
RMM:  17    -0.637560209618E+02   -0.82041E-03   -0.60821E-03 14321   0.345E-01    0.194E-01
RMM:  18    -0.637563793894E+02   -0.35843E-03   -0.33617E-03 14287   0.268E-01    0.866E-02
RMM:  19    -0.637566248207E+02   -0.24543E-03   -0.14857E-03 15354   0.146E-01    0.656E-02
RMM:  20    -0.637566352610E+02   -0.10440E-04   -0.90908E-04 13968   0.137E-01    0.682E-02
RMM:  21    -0.637566748081E+02   -0.39547E-04   -0.61026E-04 14118   0.118E-01    0.261E-02
RMM:  22    -0.637566912741E+02   -0.16466E-04   -0.21517E-04 15322   0.514E-02    0.214E-02
RMM:  23    -0.637566811425E+02    0.10132E-04   -0.22336E-04 12833   0.788E-02    0.133E-02
RMM:  24    -0.637566879306E+02   -0.67881E-05   -0.66916E-05 14145   0.256E-02    0.109E-02
RMM:  25    -0.637566793275E+02    0.86031E-05   -0.63654E-05 12822   0.445E-02    0.851E-03
RMM:  26    -0.637566830918E+02   -0.37643E-05   -0.96650E-06  9063   0.161E-02    0.567E-03
RMM:  27    -0.637566811691E+02    0.19227E-05   -0.57307E-06  8397   0.142E-02    0.334E-03
RMM:  28    -0.637566793630E+02    0.18061E-05   -0.65941E-06  8917   0.103E-02    0.112E-03
RMM:  29    -0.637566782966E+02    0.10664E-05   -0.27612E-06  6656   0.887E-03    0.586E-04
RMM:  30    -0.637566780448E+02    0.25181E-06   -0.14694E-06  6100   0.826E-03
   1 F= -.63756678E+02 E0= -.63756678E+02  d E =0.000000E+00  mag=     0.0000
