 vasp.5.4.4.18Apr17-6-g9f103f2a35 (build Apr 28 2018 00:24:27) complex          
  
 executed on             LinuxIFC date 2021.03.24  17:58:41
 running on    8 total cores
 distrk:  each k-point on    8 cores,    1 groups
 distr:  one band on NCORES_PER_BAND=   4 cores,    2 groups


--------------------------------------------------------------------------------------------------------


 INCAR:
 POTCAR:    PAW_PBE Fe 06Sep2000                  
 POTCAR:    PAW_PBE Fe 06Sep2000                  
   SHA256 =  cd5a22d9368cc8b5cc476bea79732366149640da08ac9009b0e1b7fc627eea28 Fe
   COPYR  = (c) Copyright 06Sep2000 Georg Kresse                                
   COPYR  = This file is part of the software VASP. Any use, copying, and all ot
   COPYR  = If you do not have a valid VASP license, you may not use, copy or di
   VRHFIN =Fe:  d7 s1                                                           
   LEXCH  = PE                                                                  
   EATOM  =   594.3153 eV,   43.6809 Ry                                         
                                                                                
   TITEL  = PAW_PBE Fe 06Sep2000                                                
   LULTRA =        F    use ultrasoft PP ?                                      
   IUNSCR =        1    unscreen: 0-lin 1-nonlin 2-no                           
   RPACOR =    2.000    partial core radius                                     
   POMASS =   55.847; ZVAL   =    8.000    mass and valenz                      
   RCORE  =    2.300    outmost cutoff radius                                   
   RWIGS  =    2.460; RWIGS  =    1.302    wigner-seitz radius (au A)           
   ENMAX  =  267.882; ENMIN  =  200.911 eV                                      
   RCLOC  =    1.701    cutoff for local pot                                    
   LCOR   =        T    correct aug charges                                     
   LPAW   =        T    paw PP                                                  
   EAUG   =  511.368                                                            
   DEXC   =    0.000                                                            
   RMAX   =    2.356    core radius for proj-oper                               
   RAUG   =    1.300    factor for augmentation sphere                          
   RDEP   =    2.442    radius for radial grids                                 
   RDEPT  =    1.890    core radius for aug-charge                              
                                                                                
   Atomic configuration                                                         
    9 entries                                                                   
     n  l   j            E        occ.                                          
     1  0  0.50     -6993.8440   2.0000                                         
     2  0  0.50      -814.6047   2.0000                                         
     2  1  1.50      -693.3689   6.0000                                         
     3  0  0.50       -89.4732   2.0000                                         
     3  1  1.50       -55.6373   6.0000                                         
     3  2  2.50        -3.8151   7.0000                                         
     4  0  0.50        -4.2551   1.0000                                         
     4  1  1.50        -3.4015   0.0000                                         
     4  3  2.50        -1.3606   0.0000                                         
   Description                                                                  
     l       E           TYP  RCUT    TYP  RCUT                                 
     2     -3.8151135     23  2.300                                             
     2     -5.1756961     23  2.300                                             
     0     -4.2550963     23  2.300                                             
     0      7.2035603     23  2.300                                             
     1     -2.7211652     23  2.300                                             
     1     18.4316424     23  2.300                                             
  local pseudopotential read in
  partial core-charges read in
  partial kinetic energy density read in
  atomic valenz-charges read in
  non local Contribution for L=           2  read in
    real space projection operators read in
  non local Contribution for L=           2  read in
    real space projection operators read in
  non local Contribution for L=           0  read in
    real space projection operators read in
  non local Contribution for L=           0  read in
    real space projection operators read in
  non local Contribution for L=           1  read in
    real space projection operators read in
  non local Contribution for L=           1  read in
    real space projection operators read in
    PAW grid and wavefunctions read in
 
   number of l-projection  operators is LMAX  =           6
   number of lm-projection operators is LMMAX =          18
 
  PAW_PBE Fe 06Sep2000                  :
 energy of atom  1       EATOM= -594.3153
 kinetic energy error for atom=    0.0026 (will be added to EATOM!!)
 
 
 POSCAR: Fe2 str #: 17                           
  positions in direct lattice
  No initial velocities read in
 exchange correlation table for  LEXCH =        8
   RHO(1)=    0.500       N(1)  =     2000
   RHO(2)=  100.500       N(2)  =     4000
 


--------------------------------------------------------------------------------------------------------


 ion  position               nearest neighbor table
   1  0.000  0.000  0.000-   4 2.45   6 2.45   8 2.45   4 2.45   4 2.45   6 2.45   8 2.45   4 2.45
                             5 2.83   2 2.83   2 2.83   5 2.83
   2  0.000  0.500  0.250-   4 2.45   6 2.45   7 2.45   6 2.45   4 2.45   6 2.45   7 2.45   6 2.45
                             1 2.83   1 2.83   3 2.83   3 2.83
   3  0.000  0.000  0.500-   6 2.45   7 2.45   8 2.45   7 2.45   6 2.45   7 2.45   8 2.45   7 2.45
                             2 2.83   2 2.83   5 2.83   5 2.83
   4  0.500  0.500  0.000-   1 2.45   2 2.45   5 2.45   1 2.45   1 2.45   2 2.45   5 2.45   1 2.45
                             8 2.83   6 2.83   6 2.83   8 2.83
   5  0.000  0.500  0.750-   4 2.45   7 2.45   8 2.45   8 2.45   4 2.45   7 2.45   8 2.45   8 2.45
                             1 2.83   1 2.83   3 2.83   3 2.83
   6  0.500  0.000  0.250-   1 2.45   2 2.45   3 2.45   2 2.45   1 2.45   2 2.45   3 2.45   2 2.45
                             7 2.83   4 2.83   4 2.83   7 2.83
   7  0.500  0.500  0.500-   2 2.45   3 2.45   5 2.45   3 2.45   2 2.45   3 2.45   5 2.45   3 2.45
                             8 2.83   6 2.83   6 2.83   8 2.83
   8  0.500  0.000  0.750-   1 2.45   3 2.45   5 2.45   5 2.45   1 2.45   3 2.45   5 2.45   5 2.45
                             7 2.83   4 2.83   4 2.83   7 2.83
 
  LATTYP: Found a simple orthorhombic cell.
 ALAT       =     2.8280590000
 B/A-ratio  =     1.4142135624
 C/A-ratio  =     2.8284271247
  
  Lattice vectors:
  
 A1 = (   2.8280590000,   0.0000000000,   0.0000000000)
 A2 = (   0.0000000000,   2.8280590000,   2.8280590000)
 A3 = (   0.0000000000,  -5.6561180000,   5.6561180000)


Analysis of symmetry for initial positions (statically):
=====================================================================
 Subroutine PRICEL returns following result:
 
  LATTYP: Found a body centered cubic cell.
 ALAT       =     2.8280590000
  
  Lattice vectors:
  
 A1 = (   1.4140295000,  -1.4140295000,   1.4140295000)
 A2 = (  -1.4140295000,   1.4140295000,   1.4140295000)
 A3 = (  -1.4140295000,  -1.4140295000,  -1.4140295000)
 
   8 primitive cells build up your supercell.
 

 Routine SETGRP: Setting up the symmetry group for a 
 simple orthorhombic supercell.


 Subroutine GETGRP returns: Found  8 space group operations
 (whereof  8 operations were pure point group operations)
 out of a pool of  8 trial point group operations.


The static configuration has the point symmetry D_2h.


Analysis of symmetry for dynamics (positions and initial velocities):
=====================================================================
 Subroutine PRICEL returns following result:
 
  LATTYP: Found a body centered cubic cell.
 ALAT       =     2.8280590000
  
  Lattice vectors:
  
 A1 = (   1.4140295000,  -1.4140295000,   1.4140295000)
 A2 = (  -1.4140295000,   1.4140295000,   1.4140295000)
 A3 = (  -1.4140295000,  -1.4140295000,  -1.4140295000)
 
   8 primitive cells build up your supercell.
 

 Routine SETGRP: Setting up the symmetry group for a 
 simple orthorhombic supercell.


 Subroutine GETGRP returns: Found  8 space group operations
 (whereof  8 operations were pure point group operations)
 out of a pool of  8 trial point group operations.


The dynamic configuration has the point symmetry D_2h.


Analysis of structural, dynamic, and magnetic symmetry:
=====================================================================
 Subroutine PRICEL returns:
 Original cell was already a primitive cell.
 

 Routine SETGRP: Setting up the symmetry group for a 
 simple orthorhombic supercell.


 Subroutine GETGRP returns: Found  8 space group operations
 (whereof  4 operations were pure point group operations)
 out of a pool of  8 trial point group operations.


The magnetic configuration has the point symmetry C_2v.
 The point group associated with its full space group is D_2h.


 Subroutine INISYM returns: Found  8 space group operations
 (whereof  4 operations are pure point group operations),
 and found     1 'primitive' translations

 
 
 KPOINTS: pymatgen v2021.2.8.1 with grid density =

Automatic generation of k-mesh.
Space group operators:
 irot       det(A)        alpha          n_x          n_y          n_z        tau_x        tau_y        tau_z
    1     1.000000     0.000000     1.000000     0.000000     0.000000     0.000000     0.000000     0.000000
    2     1.000000   180.000000     0.000000    -0.707107     0.707107     0.000000     0.000000     0.000000
    3    -1.000000   180.000000     0.000000     0.707107     0.707107     0.000000     0.000000     0.000000
    4    -1.000000   180.000000     1.000000     0.000000     0.000000     0.000000     0.000000     0.000000
    5    -1.000000     0.000000     1.000000     0.000000     0.000000     0.500000     0.000000     0.750000
    6    -1.000000   180.000000     0.000000    -0.707107     0.707107     0.500000     0.000000     0.750000
    7     1.000000   180.000000     0.000000     0.707107     0.707107     0.500000     0.000000     0.750000
    8     1.000000   180.000000     1.000000     0.000000     0.000000     0.500000     0.000000     0.750000
 
 Subroutine IBZKPT returns following result:
 ===========================================
 
 Found     64 irreducible k-points:
 
 Following reciprocal coordinates:
            Coordinates               Weight
  0.062500  0.062500  0.062500      8.000000
  0.187500  0.062500  0.062500      8.000000
  0.312500  0.062500  0.062500      8.000000
  0.437500  0.062500  0.062500      8.000000
  0.062500  0.187500  0.062500      8.000000
  0.187500  0.187500  0.062500      8.000000
  0.312500  0.187500  0.062500      8.000000
  0.437500  0.187500  0.062500      8.000000
  0.062500  0.312500  0.062500      8.000000
  0.187500  0.312500  0.062500      8.000000
  0.312500  0.312500  0.062500      8.000000
  0.437500  0.312500  0.062500      8.000000
  0.062500  0.437500  0.062500      8.000000
  0.187500  0.437500  0.062500      8.000000
  0.312500  0.437500  0.062500      8.000000
  0.437500  0.437500  0.062500      8.000000
  0.062500  0.062500  0.187500      8.000000
  0.187500  0.062500  0.187500      8.000000
  0.312500  0.062500  0.187500      8.000000
  0.437500  0.062500  0.187500      8.000000
  0.062500  0.187500  0.187500      8.000000
  0.187500  0.187500  0.187500      8.000000
  0.312500  0.187500  0.187500      8.000000
  0.437500  0.187500  0.187500      8.000000
  0.062500  0.312500  0.187500      8.000000
  0.187500  0.312500  0.187500      8.000000
  0.312500  0.312500  0.187500      8.000000
  0.437500  0.312500  0.187500      8.000000
  0.062500  0.437500  0.187500      8.000000
  0.187500  0.437500  0.187500      8.000000
  0.312500  0.437500  0.187500      8.000000
  0.437500  0.437500  0.187500      8.000000
  0.062500  0.062500  0.312500      8.000000
  0.187500  0.062500  0.312500      8.000000
  0.312500  0.062500  0.312500      8.000000
  0.437500  0.062500  0.312500      8.000000
  0.062500  0.187500  0.312500      8.000000
  0.187500  0.187500  0.312500      8.000000
  0.312500  0.187500  0.312500      8.000000
  0.437500  0.187500  0.312500      8.000000
  0.062500  0.312500  0.312500      8.000000
  0.187500  0.312500  0.312500      8.000000
  0.312500  0.312500  0.312500      8.000000
  0.437500  0.312500  0.312500      8.000000
  0.062500  0.437500  0.312500      8.000000
  0.187500  0.437500  0.312500      8.000000
  0.312500  0.437500  0.312500      8.000000
  0.437500  0.437500  0.312500      8.000000
  0.062500  0.062500  0.437500      8.000000
  0.187500  0.062500  0.437500      8.000000
  0.312500  0.062500  0.437500      8.000000
  0.437500  0.062500  0.437500      8.000000
  0.062500  0.187500  0.437500      8.000000
  0.187500  0.187500  0.437500      8.000000
  0.312500  0.187500  0.437500      8.000000
  0.437500  0.187500  0.437500      8.000000
  0.062500  0.312500  0.437500      8.000000
  0.187500  0.312500  0.437500      8.000000
  0.312500  0.312500  0.437500      8.000000
  0.437500  0.312500  0.437500      8.000000
  0.062500  0.437500  0.437500      8.000000
  0.187500  0.437500  0.437500      8.000000
  0.312500  0.437500  0.437500      8.000000
  0.437500  0.437500  0.437500      8.000000
 
 Following cartesian coordinates:
            Coordinates               Weight
  0.022100  0.005525  0.016575      8.000000
  0.066300  0.005525  0.016575      8.000000
  0.110500  0.005525  0.016575      8.000000
  0.154700  0.005525  0.016575      8.000000
  0.022100  0.027625  0.038675      8.000000
  0.066300  0.027625  0.038675      8.000000
  0.110500  0.027625  0.038675      8.000000
  0.154700  0.027625  0.038675      8.000000
  0.022100  0.049725  0.060775      8.000000
  0.066300  0.049725  0.060775      8.000000
  0.110500  0.049725  0.060775      8.000000
  0.154700  0.049725  0.060775      8.000000
  0.022100  0.071825  0.082875      8.000000
  0.066300  0.071825  0.082875      8.000000
  0.110500  0.071825  0.082875      8.000000
  0.154700  0.071825  0.082875      8.000000
  0.022100 -0.005525  0.027625      8.000000
  0.066300 -0.005525  0.027625      8.000000
  0.110500 -0.005525  0.027625      8.000000
  0.154700 -0.005525  0.027625      8.000000
  0.022100  0.016575  0.049725      8.000000
  0.066300  0.016575  0.049725      8.000000
  0.110500  0.016575  0.049725      8.000000
  0.154700  0.016575  0.049725      8.000000
  0.022100  0.038675  0.071825      8.000000
  0.066300  0.038675  0.071825      8.000000
  0.110500  0.038675  0.071825      8.000000
  0.154700  0.038675  0.071825      8.000000
  0.022100  0.060775  0.093925      8.000000
  0.066300  0.060775  0.093925      8.000000
  0.110500  0.060775  0.093925      8.000000
  0.154700  0.060775  0.093925      8.000000
  0.022100 -0.016575  0.038675      8.000000
  0.066300 -0.016575  0.038675      8.000000
  0.110500 -0.016575  0.038675      8.000000
  0.154700 -0.016575  0.038675      8.000000
  0.022100  0.005525  0.060775      8.000000
  0.066300  0.005525  0.060775      8.000000
  0.110500  0.005525  0.060775      8.000000
  0.154700  0.005525  0.060775      8.000000
  0.022100  0.027625  0.082875      8.000000
  0.066300  0.027625  0.082875      8.000000
  0.110500  0.027625  0.082875      8.000000
  0.154700  0.027625  0.082875      8.000000
  0.022100  0.049725  0.104975      8.000000
  0.066300  0.049725  0.104975      8.000000
  0.110500  0.049725  0.104975      8.000000
  0.154700  0.049725  0.104975      8.000000
  0.022100 -0.027625  0.049725      8.000000
  0.066300 -0.027625  0.049725      8.000000
  0.110500 -0.027625  0.049725      8.000000
  0.154700 -0.027625  0.049725      8.000000
  0.022100 -0.005525  0.071825      8.000000
  0.066300 -0.005525  0.071825      8.000000
  0.110500 -0.005525  0.071825      8.000000
  0.154700 -0.005525  0.071825      8.000000
  0.022100  0.016575  0.093925      8.000000
  0.066300  0.016575  0.093925      8.000000
  0.110500  0.016575  0.093925      8.000000
  0.154700  0.016575  0.093925      8.000000
  0.022100  0.038675  0.116025      8.000000
  0.066300  0.038675  0.116025      8.000000
  0.110500  0.038675  0.116025      8.000000
  0.154700  0.038675  0.116025      8.000000
 
 TETIRR: Found   1412 inequivalent tetrahedra from     3072


--------------------------------------------------------------------------------------------------------




 Dimension of arrays:
   k-points           NKPTS =     64   k-points in BZ     NKDIM =     64   number of bands    NBANDS=     38
   number of dos      NEDOS =    301   number of ions     NIONS =      8
   non local maximal  LDIM  =      6   non local SUM 2l+1 LMDIM =     18
   total plane-waves  NPLWV =  43200
   max r-space proj   IRMAX =      1   max aug-charges    IRDMAX=  17206
   dimension x,y,z NGX =    24 NGY =   30 NGZ =   60
   dimension x,y,z NGXF=    48 NGYF=   60 NGZF=  120
   support grid    NGXF=    48 NGYF=   60 NGZF=  120
   ions per type =               8
   NGX,Y,Z   is equivalent  to a cutoff of  14.11, 12.47, 12.47 a.u.
   NGXF,Y,Z  is equivalent  to a cutoff of  28.22, 24.94, 24.94 a.u.

 SYSTEM =  "Fe-alpha"                              
 POSCAR =  Fe2 str #: 17                           

 Startparameter for this run:
   NWRITE =      2    write-flag & timer
   PREC   = accura    normal or accurate (medium, high low for compatibility)
   ISTART =      0    job   : 0-new  1-cont  2-samecut
   ICHARG =      2    charge: 1-file 2-atom 10-const
   ISPIN  =      2    spin polarized calculation?
   LNONCOLLINEAR =      F non collinear calculations
   LSORBIT =      F    spin-orbit coupling
   INIWAV =      1    electr: 0-lowe 1-rand  2-diag
   LASPH  =      T    aspherical Exc in radial PAW
   METAGGA=      F    non-selfconsistent MetaGGA calc.

 Electronic Relaxation 1
   ENCUT  =  520.0 eV  38.22 Ry    6.18 a.u.   5.26  7.44 14.87*2*pi/ulx,y,z
   ENINI  =  520.0     initial cutoff
   ENAUG  =  511.4 eV  augmentation charge cutoff
   NELM   =     60;   NELMIN=  2; NELMDL= -5     # of ELM steps 
   EDIFF  = 0.1E-05   stopping-criterion for ELM
   LREAL  =      F    real-space projection
   NLSPLINE    = F    spline interpolate recip. space projectors
   LCOMPAT=      F    compatible to vasp.4.4
   GGA_COMPAT  = T    GGA compatible to vasp.4.4-vasp.4.6
   LMAXPAW     = -100 max onsite density
   LMAXMIX     =    2 max onsite mixed and CHGCAR
   VOSKOWN=      0    Vosko Wilk Nusair interpolation
   ROPT   =    0.00000
 Ionic relaxation
   EDIFFG = 0.1E-04   stopping-criterion for IOM
   NSW    =      0    number of steps for IOM
   NBLOCK =      1;   KBLOCK =      1    inner block; outer block 
   IBRION =     -1    ionic relax: 0-MD 1-quasi-New 2-CG
   NFREE  =      1    steps in history (QN), initial steepest desc. (CG)
   ISIF   =      2    stress and relaxation
   IWAVPR =     10    prediction:  0-non 1-charg 2-wave 3-comb
   ISYM   =      2    0-nonsym 1-usesym 2-fastsym
   LCORR  =      T    Harris-Foulkes like correction to forces

   POTIM  = 0.5000    time-step for ionic-motion
   TEIN   =    0.0    initial temperature
   TEBEG  =    0.0;   TEEND  =   0.0 temperature during run
   SMASS  =  -3.00    Nose mass-parameter (am)
   estimated Nose-frequenzy (Omega)   =  0.10E-29 period in steps =****** mass=  -0.183E-27a.u.
   SCALEE = 1.0000    scale energy and forces
   NPACO  =    256;   APACO  = 16.0  distance and # of slots for P.C.
   PSTRESS=    0.0 pullay stress

  Mass of Ions in am
   POMASS =  55.85
  Ionic Valenz
   ZVAL   =   8.00
  Atomic Wigner-Seitz radii
   RWIGS  =  -1.00
  virtual crystal weights 
   VCA    =   1.00
   NELECT =      64.0000    total number of electrons
   NUPDOWN=      -1.0000    fix difference up-down

 DOS related values:
   EMIN   =  10.00;   EMAX   =-10.00  energy-range for DOS
   EFERMI =   0.00
   ISMEAR =    -5;   SIGMA  =   0.05  broadening in eV -4-tet -1-fermi 0-gaus

 Electronic relaxation 2 (details)
   IALGO  =     68    algorithm
   LDIAG  =      T    sub-space diagonalisation (order eigenvalues)
   LSUBROT=      F    optimize rotation matrix (better conditioning)
   TURBO    =      0    0=normal 1=particle mesh
   IRESTART =      0    0=no restart 2=restart with 2 vectors
   NREBOOT  =      0    no. of reboots
   NMIN     =      0    reboot dimension
   EREF     =   0.00    reference energy to select bands
   IMIX   =      4    mixing-type and parameters
     AMIX     =   0.40;   BMIX     =  1.00
     AMIX_MAG =   1.60;   BMIX_MAG =  1.00
     AMIN     =   0.10
     WC   =   100.;   INIMIX=   1;  MIXPRE=   1;  MAXMIX= -45

 Intra band minimization:
   WEIMIN = 0.0000     energy-eigenvalue tresh-hold
   EBREAK =  0.66E-08  absolut break condition
   DEPER  =   0.30     relativ break condition  

   TIME   =   0.40     timestep for ELM

  volume/ion in A,a.u.               =      11.31        76.32
  Fermi-wavevector in a.u.,A,eV,Ry     =   1.458679  2.756503 28.949715  2.127744
  Thomas-Fermi vector in A             =   2.575335
 
 Write flags
   LWAVE        =      F    write WAVECAR
   LDOWNSAMPLE  =      F    k-point downsampling of WAVECAR
   LCHARG       =      T    write CHGCAR
   LVTOT        =      F    write LOCPOT, total local potential
   LVHAR        =      F    write LOCPOT, Hartree potential only
   LELF         =      F    write electronic localiz. function (ELF)
   LORBIT       =     11    0 simple, 1 ext, 2 COOP (PROOUT), +10 PAW based schemes


 Dipole corrections
   LMONO  =      F    monopole corrections only (constant potential shift)
   LDIPOL =      F    correct potential (dipole corrections)
   IDIPOL =      0    1-x, 2-y, 3-z, 4-all directions 
   EPSILON=  1.0000000 bulk dielectric constant

 Exchange correlation treatment:
   GGA     =    --    GGA type
   LEXCH   =     8    internal setting for exchange type
   VOSKOWN=      0    Vosko Wilk Nusair interpolation
   LHFCALC =     F    Hartree Fock is set to
   LHFONE  =     F    Hartree Fock one center treatment
   AEXX    =    0.0000 exact exchange contribution

 Linear response parameters
   LEPSILON=     F    determine dielectric tensor
   LRPA    =     F    only Hartree local field effects (RPA)
   LNABLA  =     F    use nabla operator in PAW spheres
   LVEL    =     F    velocity operator in full k-point grid
   LINTERFAST=   F  fast interpolation
   KINTER  =     0    interpolate to denser k-point grid
   CSHIFT  =0.1000    complex shift for real part using Kramers Kronig
   OMEGAMAX=  -1.0    maximum frequency
   DEG_THRESHOLD= 0.2000000E-02 threshold for treating states as degnerate
   RTIME   =   -0.100 relaxation time in fs
  (WPLASMAI=    0.000 imaginary part of plasma frequency in eV, 0.658/RTIME)
   DFIELD  = 0.0000000 0.0000000 0.0000000 field for delta impulse in time
 
 Orbital magnetization related:
   ORBITALMAG=     F  switch on orbital magnetization
   LCHIMAG   =     F  perturbation theory with respect to B field
   DQ        =  0.001000  dq finite difference perturbation B field
   LLRAUG    =     F  two centre corrections for induced B field



--------------------------------------------------------------------------------------------------------


 Static calculation
 charge density and potential will be updated during run
 spin polarized calculation
 RMM-DIIS sequential band-by-band and
  variant of blocked Davidson during initial phase
 perform sub-space diagonalisation
    before iterative eigenvector-optimisation
 modified Broyden-mixing scheme, WC =      100.0
 initial mixing is a Kerker type mixing with AMIX =  0.4000 and BMIX =      1.0000
 Hartree-type preconditioning will be used
 using additional bands            6
 reciprocal scheme for non local part
 use partial core corrections
 calculate Harris-corrections to forces 
   (improved forces if not selfconsistent)
 use gradient corrections 
 use of overlap-Matrix (Vanderbilt PP)
 Fermi weights with tetrahedron method with Bloechl corrections


--------------------------------------------------------------------------------------------------------


  energy-cutoff  :      520.00
  volume of cell :       90.47
      direct lattice vectors                 reciprocal lattice vectors
     2.828059000  0.000000000  0.000000000     0.353599412  0.000000000  0.000000000
     0.000000000  2.828059000  2.828059000     0.000000000  0.176799706  0.176799706
     0.000000000 -5.656118000  5.656118000     0.000000000 -0.088399853  0.088399853

  length of vectors
     2.828059000  3.999479393  7.998958786     0.353599412  0.250032542  0.125016271


 
 k-points in units of 2pi/SCALE and weight: pymatgen v2021.2.8.1 with grid density =
   0.02209996  0.00552499  0.01657497       0.016
   0.06629989  0.00552499  0.01657497       0.016
   0.11049982  0.00552499  0.01657497       0.016
   0.15469974  0.00552499  0.01657497       0.016
   0.02209996  0.02762495  0.03867494       0.016
   0.06629989  0.02762495  0.03867494       0.016
   0.11049982  0.02762495  0.03867494       0.016
   0.15469974  0.02762495  0.03867494       0.016
   0.02209996  0.04972492  0.06077490       0.016
   0.06629989  0.04972492  0.06077490       0.016
   0.11049982  0.04972492  0.06077490       0.016
   0.15469974  0.04972492  0.06077490       0.016
   0.02209996  0.07182488  0.08287486       0.016
   0.06629989  0.07182488  0.08287486       0.016
   0.11049982  0.07182488  0.08287486       0.016
   0.15469974  0.07182488  0.08287486       0.016
   0.02209996 -0.00552499  0.02762495       0.016
   0.06629989 -0.00552499  0.02762495       0.016
   0.11049982 -0.00552499  0.02762495       0.016
   0.15469974 -0.00552499  0.02762495       0.016
   0.02209996  0.01657497  0.04972492       0.016
   0.06629989  0.01657497  0.04972492       0.016
   0.11049982  0.01657497  0.04972492       0.016
   0.15469974  0.01657497  0.04972492       0.016
   0.02209996  0.03867494  0.07182488       0.016
   0.06629989  0.03867494  0.07182488       0.016
   0.11049982  0.03867494  0.07182488       0.016
   0.15469974  0.03867494  0.07182488       0.016
   0.02209996  0.06077490  0.09392484       0.016
   0.06629989  0.06077490  0.09392484       0.016
   0.11049982  0.06077490  0.09392484       0.016
   0.15469974  0.06077490  0.09392484       0.016
   0.02209996 -0.01657497  0.03867494       0.016
   0.06629989 -0.01657497  0.03867494       0.016
   0.11049982 -0.01657497  0.03867494       0.016
   0.15469974 -0.01657497  0.03867494       0.016
   0.02209996  0.00552499  0.06077490       0.016
   0.06629989  0.00552499  0.06077490       0.016
   0.11049982  0.00552499  0.06077490       0.016
   0.15469974  0.00552499  0.06077490       0.016
   0.02209996  0.02762495  0.08287486       0.016
   0.06629989  0.02762495  0.08287486       0.016
   0.11049982  0.02762495  0.08287486       0.016
   0.15469974  0.02762495  0.08287486       0.016
   0.02209996  0.04972492  0.10497483       0.016
   0.06629989  0.04972492  0.10497483       0.016
   0.11049982  0.04972492  0.10497483       0.016
   0.15469974  0.04972492  0.10497483       0.016
   0.02209996 -0.02762495  0.04972492       0.016
   0.06629989 -0.02762495  0.04972492       0.016
   0.11049982 -0.02762495  0.04972492       0.016
   0.15469974 -0.02762495  0.04972492       0.016
   0.02209996 -0.00552499  0.07182488       0.016
   0.06629989 -0.00552499  0.07182488       0.016
   0.11049982 -0.00552499  0.07182488       0.016
   0.15469974 -0.00552499  0.07182488       0.016
   0.02209996  0.01657497  0.09392484       0.016
   0.06629989  0.01657497  0.09392484       0.016
   0.11049982  0.01657497  0.09392484       0.016
   0.15469974  0.01657497  0.09392484       0.016
   0.02209996  0.03867494  0.11602481       0.016
   0.06629989  0.03867494  0.11602481       0.016
   0.11049982  0.03867494  0.11602481       0.016
   0.15469974  0.03867494  0.11602481       0.016
 
 k-points in reciprocal lattice and weights: pymatgen v2021.2.8.1 with grid density =
   0.06250000  0.06250000  0.06250000       0.016
   0.18750000  0.06250000  0.06250000       0.016
   0.31250000  0.06250000  0.06250000       0.016
   0.43750000  0.06250000  0.06250000       0.016
   0.06250000  0.18750000  0.06250000       0.016
   0.18750000  0.18750000  0.06250000       0.016
   0.31250000  0.18750000  0.06250000       0.016
   0.43750000  0.18750000  0.06250000       0.016
   0.06250000  0.31250000  0.06250000       0.016
   0.18750000  0.31250000  0.06250000       0.016
   0.31250000  0.31250000  0.06250000       0.016
   0.43750000  0.31250000  0.06250000       0.016
   0.06250000  0.43750000  0.06250000       0.016
   0.18750000  0.43750000  0.06250000       0.016
   0.31250000  0.43750000  0.06250000       0.016
   0.43750000  0.43750000  0.06250000       0.016
   0.06250000  0.06250000  0.18750000       0.016
   0.18750000  0.06250000  0.18750000       0.016
   0.31250000  0.06250000  0.18750000       0.016
   0.43750000  0.06250000  0.18750000       0.016
   0.06250000  0.18750000  0.18750000       0.016
   0.18750000  0.18750000  0.18750000       0.016
   0.31250000  0.18750000  0.18750000       0.016
   0.43750000  0.18750000  0.18750000       0.016
   0.06250000  0.31250000  0.18750000       0.016
   0.18750000  0.31250000  0.18750000       0.016
   0.31250000  0.31250000  0.18750000       0.016
   0.43750000  0.31250000  0.18750000       0.016
   0.06250000  0.43750000  0.18750000       0.016
   0.18750000  0.43750000  0.18750000       0.016
   0.31250000  0.43750000  0.18750000       0.016
   0.43750000  0.43750000  0.18750000       0.016
   0.06250000  0.06250000  0.31250000       0.016
   0.18750000  0.06250000  0.31250000       0.016
   0.31250000  0.06250000  0.31250000       0.016
   0.43750000  0.06250000  0.31250000       0.016
   0.06250000  0.18750000  0.31250000       0.016
   0.18750000  0.18750000  0.31250000       0.016
   0.31250000  0.18750000  0.31250000       0.016
   0.43750000  0.18750000  0.31250000       0.016
   0.06250000  0.31250000  0.31250000       0.016
   0.18750000  0.31250000  0.31250000       0.016
   0.31250000  0.31250000  0.31250000       0.016
   0.43750000  0.31250000  0.31250000       0.016
   0.06250000  0.43750000  0.31250000       0.016
   0.18750000  0.43750000  0.31250000       0.016
   0.31250000  0.43750000  0.31250000       0.016
   0.43750000  0.43750000  0.31250000       0.016
   0.06250000  0.06250000  0.43750000       0.016
   0.18750000  0.06250000  0.43750000       0.016
   0.31250000  0.06250000  0.43750000       0.016
   0.43750000  0.06250000  0.43750000       0.016
   0.06250000  0.18750000  0.43750000       0.016
   0.18750000  0.18750000  0.43750000       0.016
   0.31250000  0.18750000  0.43750000       0.016
   0.43750000  0.18750000  0.43750000       0.016
   0.06250000  0.31250000  0.43750000       0.016
   0.18750000  0.31250000  0.43750000       0.016
   0.31250000  0.31250000  0.43750000       0.016
   0.43750000  0.31250000  0.43750000       0.016
   0.06250000  0.43750000  0.43750000       0.016
   0.18750000  0.43750000  0.43750000       0.016
   0.31250000  0.43750000  0.43750000       0.016
   0.43750000  0.43750000  0.43750000       0.016
 
 position of ions in fractional coordinates (direct lattice) 
   0.00000000  0.00000000  0.00000000
   0.00000000  0.50000000  0.25000000
   0.00000000  0.00000000  0.50000000
   0.50000000  0.50000000  0.00000000
   0.00000000  0.50000000  0.75000000
   0.50000000  0.00000000  0.25000000
   0.50000000  0.50000000  0.50000000
   0.50000000  0.00000000  0.75000000
 
 position of ions in cartesian coordinates  (Angst):
   0.00000000  0.00000000  0.00000000
   0.00000000  0.00000000  2.82805900
   0.00000000 -2.82805900  2.82805900
   1.41402950  1.41402950  1.41402950
   0.00000000 -2.82805900  5.65611800
   1.41402950 -1.41402950  1.41402950
   1.41402950 -1.41402950  4.24208850
   1.41402950 -4.24208850  4.24208850
 


--------------------------------------------------------------------------------------------------------


 k-point  1 :   0.0625 0.0625 0.0625  plane waves:    2442
 k-point  2 :   0.1875 0.0625 0.0625  plane waves:    2441
 k-point  3 :   0.3125 0.0625 0.0625  plane waves:    2440
 k-point  4 :   0.4375 0.0625 0.0625  plane waves:    2451
 k-point  5 :   0.0625 0.1875 0.0625  plane waves:    2444
 k-point  6 :   0.1875 0.1875 0.0625  plane waves:    2436
 k-point  7 :   0.3125 0.1875 0.0625  plane waves:    2445
 k-point  8 :   0.4375 0.1875 0.0625  plane waves:    2442
 k-point  9 :   0.0625 0.3125 0.0625  plane waves:    2434
 k-point 10 :   0.1875 0.3125 0.0625  plane waves:    2438
 k-point 11 :   0.3125 0.3125 0.0625  plane waves:    2431
 k-point 12 :   0.4375 0.3125 0.0625  plane waves:    2434
 k-point 13 :   0.0625 0.4375 0.0625  plane waves:    2429
 k-point 14 :   0.1875 0.4375 0.0625  plane waves:    2423
 k-point 15 :   0.3125 0.4375 0.0625  plane waves:    2420
 k-point 16 :   0.4375 0.4375 0.0625  plane waves:    2424
 k-point 17 :   0.0625 0.0625 0.1875  plane waves:    2435
 k-point 18 :   0.1875 0.0625 0.1875  plane waves:    2438
 k-point 19 :   0.3125 0.0625 0.1875  plane waves:    2439
 k-point 20 :   0.4375 0.0625 0.1875  plane waves:    2442
 k-point 21 :   0.0625 0.1875 0.1875  plane waves:    2441
 k-point 22 :   0.1875 0.1875 0.1875  plane waves:    2438
 k-point 23 :   0.3125 0.1875 0.1875  plane waves:    2438
 k-point 24 :   0.4375 0.1875 0.1875  plane waves:    2436
 k-point 25 :   0.0625 0.3125 0.1875  plane waves:    2436
 k-point 26 :   0.1875 0.3125 0.1875  plane waves:    2433
 k-point 27 :   0.3125 0.3125 0.1875  plane waves:    2431
 k-point 28 :   0.4375 0.3125 0.1875  plane waves:    2432
 k-point 29 :   0.0625 0.4375 0.1875  plane waves:    2441
 k-point 30 :   0.1875 0.4375 0.1875  plane waves:    2425
 k-point 31 :   0.3125 0.4375 0.1875  plane waves:    2415
 k-point 32 :   0.4375 0.4375 0.1875  plane waves:    2427
 k-point 33 :   0.0625 0.0625 0.3125  plane waves:    2430
 k-point 34 :   0.1875 0.0625 0.3125  plane waves:    2438
 k-point 35 :   0.3125 0.0625 0.3125  plane waves:    2447
 k-point 36 :   0.4375 0.0625 0.3125  plane waves:    2446
 k-point 37 :   0.0625 0.1875 0.3125  plane waves:    2441
 k-point 38 :   0.1875 0.1875 0.3125  plane waves:    2442
 k-point 39 :   0.3125 0.1875 0.3125  plane waves:    2434
 k-point 40 :   0.4375 0.1875 0.3125  plane waves:    2443
 k-point 41 :   0.0625 0.3125 0.3125  plane waves:    2443
 k-point 42 :   0.1875 0.3125 0.3125  plane waves:    2435
 k-point 43 :   0.3125 0.3125 0.3125  plane waves:    2427
 k-point 44 :   0.4375 0.3125 0.3125  plane waves:    2437
 k-point 45 :   0.0625 0.4375 0.3125  plane waves:    2443
 k-point 46 :   0.1875 0.4375 0.3125  plane waves:    2427
 k-point 47 :   0.3125 0.4375 0.3125  plane waves:    2425
 k-point 48 :   0.4375 0.4375 0.3125  plane waves:    2432
 k-point 49 :   0.0625 0.0625 0.4375  plane waves:    2429
 k-point 50 :   0.1875 0.0625 0.4375  plane waves:    2436
 k-point 51 :   0.3125 0.0625 0.4375  plane waves:    2449
 k-point 52 :   0.4375 0.0625 0.4375  plane waves:    2448
 k-point 53 :   0.0625 0.1875 0.4375  plane waves:    2437
 k-point 54 :   0.1875 0.1875 0.4375  plane waves:    2436
 k-point 55 :   0.3125 0.1875 0.4375  plane waves:    2436
 k-point 56 :   0.4375 0.1875 0.4375  plane waves:    2444
 k-point 57 :   0.0625 0.3125 0.4375  plane waves:    2447
 k-point 58 :   0.1875 0.3125 0.4375  plane waves:    2431
 k-point 59 :   0.3125 0.3125 0.4375  plane waves:    2423
 k-point 60 :   0.4375 0.3125 0.4375  plane waves:    2434
 k-point 61 :   0.0625 0.4375 0.4375  plane waves:    2440
 k-point 62 :   0.1875 0.4375 0.4375  plane waves:    2438
 k-point 63 :   0.3125 0.4375 0.4375  plane waves:    2420
 k-point 64 :   0.4375 0.4375 0.4375  plane waves:    2428

 maximum and minimum number of plane-waves per node :       621      588

 maximum number of plane-waves:      2451
 maximum index in each direction: 
   IXMAX=    5   IYMAX=    7   IZMAX=   14
   IXMIN=   -5   IYMIN=   -7   IZMIN=  -15


 parallel 3D FFT for wavefunctions:
    minimum data exchange during FFTs selected (reduces bandwidth)
 parallel 3D FFT for charge:
    minimum data exchange during FFTs selected (reduces bandwidth)


 total amount of memory used by VASP MPI-rank0    67190. kBytes
=======================================================================

   base      :      30000. kBytes
   nonl-proj :       5793. kBytes
   fftplans  :       1786. kBytes
   grid      :       4023. kBytes
   one-center:         62. kBytes
   wavefun   :      25526. kBytes
 
     INWAV:  cpu time    0.0000: real time    0.0001
 Broyden mixing: mesh for mixing (old mesh)
   NGX = 11   NGY = 15   NGZ = 29
  (NGX  = 48   NGY  = 60   NGZ  =120)
  gives a total of   4785 points

 initial charge density was supplied:
 charge density of overlapping atoms calculated
 number of electron      64.0000000 magnetization       0.0000000
 keeping initial charge density in first step


--------------------------------------------------------------------------------------------------------


 Maximum index for augmentation-charges         2041 (set IRDMAX)


--------------------------------------------------------------------------------------------------------


 First call to EWALD:  gamma=   0.395
 Maximum number of real-space cells 4x 3x 2
 Maximum number of reciprocal cells 2x 3x 5

    FEWALD:  cpu time    0.0013: real time    0.0013


--------------------------------------- Iteration      1(   1)  ---------------------------------------


    POTLOK:  cpu time    0.0553: real time    0.0580
    SETDIJ:  cpu time    0.6108: real time    0.6122
     EDDAV:  cpu time    3.6870: real time    3.7089
 BZINTS: Fermi energy: 21.125862; 64.000000 electrons
         Band energy: 954.363920;  BLOECHL correction: -0.105885
       DOS:  cpu time    0.1597: real time    0.1601
    --------------------------------------------
      LOOP:  cpu time    4.5128: real time    4.5392

 eigenvalue-minimisations  :  9752
 total energy-change (2. order) : 0.5383235E+03  (-0.2739987E+04)
 number of electron      64.0000000 magnetization       0.0000000
 augmentation part       64.0000000 magnetization       0.0000000

 Free energy of the ion-electron system (eV)
  ---------------------------------------------------
  alpha Z        PSCENC =       488.89906520
  Ewald energy   TEWEN  =     -4743.70317337
  -Hartree energ DENC   =      -889.53046104
  -exchange      EXHF   =         0.00000000
  -V(xc)+E(xc)   XCENC  =        35.49171347
  PAW double counting   =      4434.36362270    -4496.06260620
  entropy T*S    EENTRO =         0.00000000
  eigenvalues    EBANDS =       954.36391990
  atomic energy  EATOM  =      4754.50144563
  Solvation  Ediel_sol  =         0.00000000
  ---------------------------------------------------
  free energy    TOTEN  =       538.32352629 eV

  energy without entropy =      538.32352629  energy(sigma->0) =      538.32352629


--------------------------------------------------------------------------------------------------------




--------------------------------------- Iteration      1(   2)  ---------------------------------------


     EDDAV:  cpu time    3.7149: real time    3.7264
 BZINTS: Fermi energy: 10.200625; 64.000000 electrons
         Band energy: 403.274608;  BLOECHL correction: -0.053929
       DOS:  cpu time    0.1784: real time    0.1788
    --------------------------------------------
      LOOP:  cpu time    3.8934: real time    3.9053

 eigenvalue-minimisations  :  9728
 total energy-change (2. order) :-0.5510893E+03  (-0.5382168E+03)
 number of electron      64.0000000 magnetization       0.0000000
 augmentation part       64.0000000 magnetization       0.0000000

 Free energy of the ion-electron system (eV)
  ---------------------------------------------------
  alpha Z        PSCENC =       488.89906520
  Ewald energy   TEWEN  =     -4743.70317337
  -Hartree energ DENC   =      -889.53046104
  -exchange      EXHF   =         0.00000000
  -V(xc)+E(xc)   XCENC  =        35.49171347
  PAW double counting   =      4434.36362270    -4496.06260620
  entropy T*S    EENTRO =         0.00000000
  eigenvalues    EBANDS =       403.27460824
  atomic energy  EATOM  =      4754.50144563
  Solvation  Ediel_sol  =         0.00000000
  ---------------------------------------------------
  free energy    TOTEN  =       -12.76578538 eV

  energy without entropy =      -12.76578538  energy(sigma->0) =      -12.76578538


--------------------------------------------------------------------------------------------------------




--------------------------------------- Iteration      1(   3)  ---------------------------------------


     EDDAV:  cpu time    4.9234: real time    4.9377
 BZINTS: Fermi energy:  8.808412; 64.000000 electrons
         Band energy: 348.660099;  BLOECHL correction: -0.051717
       DOS:  cpu time    0.1643: real time    0.1647
    --------------------------------------------
      LOOP:  cpu time    5.0878: real time    5.1025

 eigenvalue-minimisations  : 14048
 total energy-change (2. order) :-0.5461451E+02  (-0.4984266E+02)
 number of electron      64.0000000 magnetization       0.0000000
 augmentation part       64.0000000 magnetization       0.0000000

 Free energy of the ion-electron system (eV)
  ---------------------------------------------------
  alpha Z        PSCENC =       488.89906520
  Ewald energy   TEWEN  =     -4743.70317337
  -Hartree energ DENC   =      -889.53046104
  -exchange      EXHF   =         0.00000000
  -V(xc)+E(xc)   XCENC  =        35.49171347
  PAW double counting   =      4434.36362270    -4496.06260620
  entropy T*S    EENTRO =         0.00000000
  eigenvalues    EBANDS =       348.66009898
  atomic energy  EATOM  =      4754.50144563
  Solvation  Ediel_sol  =         0.00000000
  ---------------------------------------------------
  free energy    TOTEN  =       -67.38029463 eV

  energy without entropy =      -67.38029463  energy(sigma->0) =      -67.38029463


--------------------------------------------------------------------------------------------------------




--------------------------------------- Iteration      1(   4)  ---------------------------------------


     EDDAV:  cpu time    5.4733: real time    5.4880
 BZINTS: Fermi energy:  8.476334; 64.000000 electrons
         Band energy: 342.507702;  BLOECHL correction: -0.029820
       DOS:  cpu time    0.1610: real time    0.1614
    --------------------------------------------
      LOOP:  cpu time    5.6343: real time    5.6494

 eigenvalue-minimisations  : 16026
 total energy-change (2. order) :-0.6152397E+01  (-0.5564172E+01)
 number of electron      64.0000000 magnetization       0.0000000
 augmentation part       64.0000000 magnetization       0.0000000

 Free energy of the ion-electron system (eV)
  ---------------------------------------------------
  alpha Z        PSCENC =       488.89906520
  Ewald energy   TEWEN  =     -4743.70317337
  -Hartree energ DENC   =      -889.53046104
  -exchange      EXHF   =         0.00000000
  -V(xc)+E(xc)   XCENC  =        35.49171347
  PAW double counting   =      4434.36362270    -4496.06260620
  entropy T*S    EENTRO =         0.00000000
  eigenvalues    EBANDS =       342.50770190
  atomic energy  EATOM  =      4754.50144563
  Solvation  Ediel_sol  =         0.00000000
  ---------------------------------------------------
  free energy    TOTEN  =       -73.53269172 eV

  energy without entropy =      -73.53269172  energy(sigma->0) =      -73.53269172


--------------------------------------------------------------------------------------------------------




--------------------------------------- Iteration      1(   5)  ---------------------------------------


     EDDAV:  cpu time    5.1028: real time    5.1158
 BZINTS: Fermi energy:  8.431933; 64.000000 electrons
         Band energy: 342.055534;  BLOECHL correction: -0.034630
       DOS:  cpu time    0.1746: real time    0.1750
    CHARGE:  cpu time    0.3079: real time    0.3086
    MIXING:  cpu time    0.0011: real time    0.0011
    --------------------------------------------
      LOOP:  cpu time    5.5865: real time    5.6005

 eigenvalue-minimisations  : 15140
 total energy-change (2. order) :-0.4521681E+00  (-0.4122714E+00)
 number of electron      64.0000056 magnetization       0.0000000
 augmentation part       28.7245776 magnetization       0.0000000

 Broyden mixing:
  rms(total) = 0.31803E+01    rms(broyden)= 0.31802E+01
  rms(prec ) = 0.39658E+01
  weight for this iteration     100.00

 Free energy of the ion-electron system (eV)
  ---------------------------------------------------
  alpha Z        PSCENC =       488.89906520
  Ewald energy   TEWEN  =     -4743.70317337
  -Hartree energ DENC   =      -889.53046104
  -exchange      EXHF   =         0.00000000
  -V(xc)+E(xc)   XCENC  =        35.49171347
  PAW double counting   =      4434.36362270    -4496.06260620
  entropy T*S    EENTRO =         0.00000000
  eigenvalues    EBANDS =       342.05553384
  atomic energy  EATOM  =      4754.50144563
  Solvation  Ediel_sol  =         0.00000000
  ---------------------------------------------------
  free energy    TOTEN  =       -73.98485978 eV

  energy without entropy =      -73.98485978  energy(sigma->0) =      -73.98485978


--------------------------------------------------------------------------------------------------------




--------------------------------------- Iteration      1(   6)  ---------------------------------------


    POTLOK:  cpu time    0.0506: real time    0.0508
    SETDIJ:  cpu time    0.6088: real time    0.6104
    EDDIAG:  cpu time    0.8393: real time    0.8415
  RMM-DIIS:  cpu time    2.7538: real time    2.7611
    ORTHCH:  cpu time    0.0880: real time    0.0882
 BZINTS: Fermi energy:  5.484326; 64.000000 electrons
         Band energy: 203.619969;  BLOECHL correction: -0.048757
       DOS:  cpu time    0.1702: real time    0.1706
    CHARGE:  cpu time    0.3100: real time    0.3107
    MIXING:  cpu time    0.0012: real time    0.0012
    --------------------------------------------
      LOOP:  cpu time    4.8219: real time    4.8345

 eigenvalue-minimisations  :  9728
 total energy-change (2. order) : 0.1010017E+02  (-0.9829501E+01)
 number of electron      64.0000066 magnetization      -0.0000000
 augmentation part       33.5302186 magnetization      -0.0000000

 Broyden mixing:
  rms(total) = 0.16751E+01    rms(broyden)= 0.16750E+01
  rms(prec ) = 0.19837E+01
  weight for this iteration     100.00

 eigenvalues of (default mixing * dielectric matrix)
  average eigenvalue GAMMA=   0.6052
  0.6052

 Free energy of the ion-electron system (eV)
  ---------------------------------------------------
  alpha Z        PSCENC =       488.89906520
  Ewald energy   TEWEN  =     -4743.70317337
  -Hartree energ DENC   =      -752.25539514
  -exchange      EXHF   =         0.00000000
  -V(xc)+E(xc)   XCENC  =        28.82057529
  PAW double counting   =      4856.57085344    -4900.33802887
  entropy T*S    EENTRO =         0.00000000
  eigenvalues    EBANDS =       203.61996883
  atomic energy  EATOM  =      4754.50144563
  Solvation  Ediel_sol  =         0.00000000
  ---------------------------------------------------
  free energy    TOTEN  =       -63.88468900 eV

  energy without entropy =      -63.88468900  energy(sigma->0) =      -63.88468900


--------------------------------------------------------------------------------------------------------




--------------------------------------- Iteration      1(   7)  ---------------------------------------


    POTLOK:  cpu time    0.0502: real time    0.0504
    SETDIJ:  cpu time    0.6087: real time    0.6102
    EDDIAG:  cpu time    0.8401: real time    0.8423
  RMM-DIIS:  cpu time    2.8602: real time    2.8673
    ORTHCH:  cpu time    0.0855: real time    0.0857
 BZINTS: Fermi energy:  6.199715; 64.000000 electrons
         Band energy: 211.574022;  BLOECHL correction: -0.021179
       DOS:  cpu time    0.1785: real time    0.2328
    CHARGE:  cpu time    0.3060: real time    0.3067
    MIXING:  cpu time    0.0013: real time    0.0013
    --------------------------------------------
      LOOP:  cpu time    4.9303: real time    4.9968

 eigenvalue-minimisations  : 10130
 total energy-change (2. order) :-0.9702995E+01  (-0.4604640E+01)
 number of electron      64.0000064 magnetization      -0.0000000
 augmentation part       33.4562079 magnetization      -0.0000000

 Broyden mixing:
  rms(total) = 0.36628E+01    rms(broyden)= 0.36627E+01
  rms(prec ) = 0.55702E+01
  weight for this iteration     100.00

 eigenvalues of (default mixing * dielectric matrix)
  average eigenvalue GAMMA=   0.5477
  0.7921  0.3033

 Free energy of the ion-electron system (eV)
  ---------------------------------------------------
  alpha Z        PSCENC =       488.89906520
  Ewald energy   TEWEN  =     -4743.70317337
  -Hartree energ DENC   =      -758.72946561
  -exchange      EXHF   =         0.00000000
  -V(xc)+E(xc)   XCENC  =        30.53358473
  PAW double counting   =      5122.25316593    -5178.91632847
  entropy T*S    EENTRO =         0.00000000
  eigenvalues    EBANDS =       211.57402151
  atomic energy  EATOM  =      4754.50144563
  Solvation  Ediel_sol  =         0.00000000
  ---------------------------------------------------
  free energy    TOTEN  =       -73.58768445 eV

  energy without entropy =      -73.58768445  energy(sigma->0) =      -73.58768445


--------------------------------------------------------------------------------------------------------




--------------------------------------- Iteration      1(   8)  ---------------------------------------


    POTLOK:  cpu time    0.0516: real time    0.0525
    SETDIJ:  cpu time    0.5988: real time    0.6003
    EDDIAG:  cpu time    0.8395: real time    0.8416
  RMM-DIIS:  cpu time    2.5729: real time    2.5791
    ORTHCH:  cpu time    0.0810: real time    0.0812
 BZINTS: Fermi energy:  5.888223; 64.000000 electrons
         Band energy: 226.311706;  BLOECHL correction: -0.028270
       DOS:  cpu time    0.1485: real time    0.1488
    CHARGE:  cpu time    0.2891: real time    0.2897
    MIXING:  cpu time    0.0011: real time    0.0011
    --------------------------------------------
      LOOP:  cpu time    4.5824: real time    4.5943

 eigenvalue-minimisations  :  9732
 total energy-change (2. order) : 0.9497790E+01  (-0.1858015E+01)
 number of electron      64.0000066 magnetization      -0.0000000
 augmentation part       33.2973488 magnetization      -0.0000000

 Broyden mixing:
  rms(total) = 0.12146E+01    rms(broyden)= 0.12145E+01
  rms(prec ) = 0.21918E+01
  weight for this iteration     100.00

 eigenvalues of (default mixing * dielectric matrix)
  average eigenvalue GAMMA=   0.5570
  1.0014  0.5002  0.1694

 Free energy of the ion-electron system (eV)
  ---------------------------------------------------
  alpha Z        PSCENC =       488.89906520
  Ewald energy   TEWEN  =     -4743.70317337
  -Hartree energ DENC   =      -760.12016685
  -exchange      EXHF   =         0.00000000
  -V(xc)+E(xc)   XCENC  =        30.52358089
  PAW double counting   =      5211.91191198    -5272.41426380
  entropy T*S    EENTRO =         0.00000000
  eigenvalues    EBANDS =       226.31170598
  atomic energy  EATOM  =      4754.50144563
  Solvation  Ediel_sol  =         0.00000000
  ---------------------------------------------------
  free energy    TOTEN  =       -64.08989435 eV

  energy without entropy =      -64.08989435  energy(sigma->0) =      -64.08989435


--------------------------------------------------------------------------------------------------------




--------------------------------------- Iteration      1(   9)  ---------------------------------------


    POTLOK:  cpu time    0.0442: real time    0.0444
    SETDIJ:  cpu time    0.5091: real time    0.5103
    EDDIAG:  cpu time    0.7843: real time    0.7861
  RMM-DIIS:  cpu time    2.8485: real time    2.8553
    ORTHCH:  cpu time    0.0802: real time    0.0804
 BZINTS: Fermi energy:  6.156398; 64.000000 electrons
         Band energy: 227.682489;  BLOECHL correction: -0.035374
       DOS:  cpu time    0.1515: real time    0.1518
    CHARGE:  cpu time    0.2876: real time    0.2883
    MIXING:  cpu time    0.0011: real time    0.0011
    --------------------------------------------
      LOOP:  cpu time    4.7065: real time    4.7177

 eigenvalue-minimisations  : 10772
 total energy-change (2. order) :-0.1031492E+01  (-0.8288698E+00)
 number of electron      64.0000065 magnetization       0.0000000
 augmentation part       33.1849145 magnetization       0.0000000

 Broyden mixing:
  rms(total) = 0.16654E+01    rms(broyden)= 0.16653E+01
  rms(prec ) = 0.31523E+01
  weight for this iteration     100.00

 eigenvalues of (default mixing * dielectric matrix)
  average eigenvalue GAMMA=   0.4854
  1.1086  0.5473  0.1642  0.1213

 Free energy of the ion-electron system (eV)
  ---------------------------------------------------
  alpha Z        PSCENC =       488.89906520
  Ewald energy   TEWEN  =     -4743.70317337
  -Hartree energ DENC   =      -760.72159018
  -exchange      EXHF   =         0.00000000
  -V(xc)+E(xc)   XCENC  =        30.60420228
  PAW double counting   =      5270.60900928    -5332.99283433
  entropy T*S    EENTRO =         0.00000000
  eigenvalues    EBANDS =       227.68248901
  atomic energy  EATOM  =      4754.50144563
  Solvation  Ediel_sol  =         0.00000000
  ---------------------------------------------------
  free energy    TOTEN  =       -65.12138650 eV

  energy without entropy =      -65.12138650  energy(sigma->0) =      -65.12138650


--------------------------------------------------------------------------------------------------------




--------------------------------------- Iteration      1(  10)  ---------------------------------------


    POTLOK:  cpu time    0.0441: real time    0.0443
    SETDIJ:  cpu time    0.5137: real time    0.5150
    EDDIAG:  cpu time    0.7821: real time    0.7839
  RMM-DIIS:  cpu time    2.5971: real time    2.6038
    ORTHCH:  cpu time    0.0835: real time    0.0838
 BZINTS: Fermi energy:  6.104627; 64.000000 electrons
         Band energy: 232.828785;  BLOECHL correction: -0.031425
       DOS:  cpu time    0.1405: real time    0.1416
    CHARGE:  cpu time    0.2870: real time    0.2893
    MIXING:  cpu time    0.0012: real time    0.0012
    --------------------------------------------
      LOOP:  cpu time    4.4492: real time    4.4627

 eigenvalue-minimisations  :  9825
 total energy-change (2. order) : 0.1437536E+01  (-0.1507489E+00)
 number of electron      64.0000065 magnetization       0.0000000
 augmentation part       33.0764011 magnetization       0.0000000

 Broyden mixing:
  rms(total) = 0.35880E+00    rms(broyden)= 0.35870E+00
  rms(prec ) = 0.50288E+00
  weight for this iteration     100.00

 eigenvalues of (default mixing * dielectric matrix)
  average eigenvalue GAMMA=   0.5672
  1.2832  0.6388  0.6388  0.1622  0.1129

 Free energy of the ion-electron system (eV)
  ---------------------------------------------------
  alpha Z        PSCENC =       488.89906520
  Ewald energy   TEWEN  =     -4743.70317337
  -Hartree energ DENC   =      -761.07648407
  -exchange      EXHF   =         0.00000000
  -V(xc)+E(xc)   XCENC  =        30.69401678
  PAW double counting   =      5382.45281372    -5448.28031880
  entropy T*S    EENTRO =         0.00000000
  eigenvalues    EBANDS =       232.82878461
  atomic energy  EATOM  =      4754.50144563
  Solvation  Ediel_sol  =         0.00000000
  ---------------------------------------------------
  free energy    TOTEN  =       -63.68385031 eV

  energy without entropy =      -63.68385031  energy(sigma->0) =      -63.68385031


--------------------------------------------------------------------------------------------------------




--------------------------------------- Iteration      1(  11)  ---------------------------------------


    POTLOK:  cpu time    0.0448: real time    0.0450
    SETDIJ:  cpu time    0.5254: real time    0.5281
    EDDIAG:  cpu time    0.8134: real time    0.8168
  RMM-DIIS:  cpu time    3.0555: real time    3.0628
    ORTHCH:  cpu time    0.0875: real time    0.0877
 BZINTS: Fermi energy:  6.113431; 64.000000 electrons
         Band energy: 232.517675;  BLOECHL correction: -0.034284
       DOS:  cpu time    0.1553: real time    0.1557
    CHARGE:  cpu time    0.3109: real time    0.3116
    MIXING:  cpu time    0.0015: real time    0.0015
    --------------------------------------------
      LOOP:  cpu time    4.9944: real time    5.0093

 eigenvalue-minimisations  : 10977
 total energy-change (2. order) :-0.3292372E+00  (-0.1822043E+00)
 number of electron      64.0000065 magnetization       0.0000000
 augmentation part       33.0723401 magnetization       0.0000000

 Broyden mixing:
  rms(total) = 0.76575E+00    rms(broyden)= 0.76573E+00
  rms(prec ) = 0.11476E+01
  weight for this iteration     100.00

 eigenvalues of (default mixing * dielectric matrix)
  average eigenvalue GAMMA=   0.5437
  1.4367  0.6936  0.6936  0.1099  0.1695  0.1586

 Free energy of the ion-electron system (eV)
  ---------------------------------------------------
  alpha Z        PSCENC =       488.89906520
  Ewald energy   TEWEN  =     -4743.70317337
  -Hartree energ DENC   =      -759.34572545
  -exchange      EXHF   =         0.00000000
  -V(xc)+E(xc)   XCENC  =        31.02853084
  PAW double counting   =      5475.07063153    -5542.98153638
  entropy T*S    EENTRO =         0.00000000
  eigenvalues    EBANDS =       232.51767455
  atomic energy  EATOM  =      4754.50144563
  Solvation  Ediel_sol  =         0.00000000
  ---------------------------------------------------
  free energy    TOTEN  =       -64.01308747 eV

  energy without entropy =      -64.01308747  energy(sigma->0) =      -64.01308747


--------------------------------------------------------------------------------------------------------




--------------------------------------- Iteration      1(  12)  ---------------------------------------


    POTLOK:  cpu time    0.0509: real time    0.0525
    SETDIJ:  cpu time    0.6244: real time    0.6261
    EDDIAG:  cpu time    0.8170: real time    0.8192
  RMM-DIIS:  cpu time    2.9712: real time    2.9784
    ORTHCH:  cpu time    0.0865: real time    0.0867
 BZINTS: Fermi energy:  6.134772; 64.000000 electrons
         Band energy: 232.617509;  BLOECHL correction: -0.034250
       DOS:  cpu time    0.1704: real time    0.1708
    CHARGE:  cpu time    0.3087: real time    0.3095
    MIXING:  cpu time    0.0015: real time    0.0015
    --------------------------------------------
      LOOP:  cpu time    5.0307: real time    5.0446

 eigenvalue-minimisations  : 10358
 total energy-change (2. order) : 0.2997289E+00  (-0.6186022E-01)
 number of electron      64.0000065 magnetization      -0.0000000
 augmentation part       33.0657098 magnetization      -0.0000000

 Broyden mixing:
  rms(total) = 0.17986E+00    rms(broyden)= 0.17983E+00
  rms(prec ) = 0.26502E+00
  weight for this iteration     100.00

 eigenvalues of (default mixing * dielectric matrix)
  average eigenvalue GAMMA=   0.6498
  1.8456  0.8270  0.8270  0.6153  0.1115  0.1610  0.1610

 Free energy of the ion-electron system (eV)
  ---------------------------------------------------
  alpha Z        PSCENC =       488.89906520
  Ewald energy   TEWEN  =     -4743.70317337
  -Hartree energ DENC   =      -757.96987872
  -exchange      EXHF   =         0.00000000
  -V(xc)+E(xc)   XCENC  =        31.19667349
  PAW double counting   =      5539.18952234    -5608.44452213
  entropy T*S    EENTRO =         0.00000000
  eigenvalues    EBANDS =       232.61750903
  atomic energy  EATOM  =      4754.50144563
  Solvation  Ediel_sol  =         0.00000000
  ---------------------------------------------------
  free energy    TOTEN  =       -63.71335854 eV

  energy without entropy =      -63.71335854  energy(sigma->0) =      -63.71335854


--------------------------------------------------------------------------------------------------------




--------------------------------------- Iteration      1(  13)  ---------------------------------------


    POTLOK:  cpu time    0.0507: real time    0.0509
    SETDIJ:  cpu time    0.6212: real time    0.6227
    EDDIAG:  cpu time    0.8259: real time    0.8279
  RMM-DIIS:  cpu time    4.1840: real time    4.1939
    ORTHCH:  cpu time    0.0863: real time    0.0865
 BZINTS: Fermi energy:  6.132451; 64.000000 electrons
         Band energy: 232.007519;  BLOECHL correction: -0.034790
       DOS:  cpu time    0.1656: real time    0.1660
    CHARGE:  cpu time    0.3091: real time    0.3098
    MIXING:  cpu time    0.0016: real time    0.0016
    --------------------------------------------
      LOOP:  cpu time    6.2444: real time    6.2593

 eigenvalue-minimisations  : 14981
 total energy-change (2. order) :-0.3016665E-01  (-0.4132973E-01)
 number of electron      64.0000065 magnetization       0.0000000
 augmentation part       33.0941366 magnetization       0.0000000

 Broyden mixing:
  rms(total) = 0.11233E+00    rms(broyden)= 0.11231E+00
  rms(prec ) = 0.15449E+00
  weight for this iteration     100.00

 eigenvalues of (default mixing * dielectric matrix)
  average eigenvalue GAMMA=   0.7157
  2.2873  0.9181  0.9181  0.6534  0.5121  0.1115  0.1627  0.1627

 Free energy of the ion-electron system (eV)
  ---------------------------------------------------
  alpha Z        PSCENC =       488.89906520
  Ewald energy   TEWEN  =     -4743.70317337
  -Hartree energ DENC   =      -755.89746126
  -exchange      EXHF   =         0.00000000
  -V(xc)+E(xc)   XCENC  =        31.29302094
  PAW double counting   =      5624.83129704    -5695.67523816
  entropy T*S    EENTRO =         0.00000000
  eigenvalues    EBANDS =       232.00751880
  atomic energy  EATOM  =      4754.50144563
  Solvation  Ediel_sol  =         0.00000000
  ---------------------------------------------------
  free energy    TOTEN  =       -63.74352519 eV

  energy without entropy =      -63.74352519  energy(sigma->0) =      -63.74352519


--------------------------------------------------------------------------------------------------------




--------------------------------------- Iteration      1(  14)  ---------------------------------------


    POTLOK:  cpu time    0.0505: real time    0.0507
    SETDIJ:  cpu time    0.5911: real time    0.5925
    EDDIAG:  cpu time    0.7951: real time    0.7970
  RMM-DIIS:  cpu time    3.5996: real time    3.6081
    ORTHCH:  cpu time    0.0865: real time    0.0867
 BZINTS: Fermi energy:  6.135414; 64.000000 electrons
         Band energy: 231.659967;  BLOECHL correction: -0.035408
       DOS:  cpu time    0.1482: real time    0.1486
    CHARGE:  cpu time    0.3104: real time    0.3111
    MIXING:  cpu time    0.0016: real time    0.0016
    --------------------------------------------
      LOOP:  cpu time    5.5829: real time    5.5962

 eigenvalue-minimisations  : 12968
 total energy-change (2. order) :-0.5286468E-02  (-0.4681644E-02)
 number of electron      64.0000065 magnetization       0.0000000
 augmentation part       33.1067740 magnetization       0.0000000

 Broyden mixing:
  rms(total) = 0.64107E-01    rms(broyden)= 0.64095E-01
  rms(prec ) = 0.82934E-01
  weight for this iteration     100.00

 eigenvalues of (default mixing * dielectric matrix)
  average eigenvalue GAMMA=   0.8000
  2.7830  1.2424  0.7621  0.7621  0.6065  0.6065  0.1115  0.1629  0.1629

 Free energy of the ion-electron system (eV)
  ---------------------------------------------------
  alpha Z        PSCENC =       488.89906520
  Ewald energy   TEWEN  =     -4743.70317337
  -Hartree energ DENC   =      -754.85578397
  -exchange      EXHF   =         0.00000000
  -V(xc)+E(xc)   XCENC  =        31.42199151
  PAW double counting   =      5674.83442469    -5746.50674853
  entropy T*S    EENTRO =         0.00000000
  eigenvalues    EBANDS =       231.65996718
  atomic energy  EATOM  =      4754.50144563
  Solvation  Ediel_sol  =         0.00000000
  ---------------------------------------------------
  free energy    TOTEN  =       -63.74881166 eV

  energy without entropy =      -63.74881166  energy(sigma->0) =      -63.74881166


--------------------------------------------------------------------------------------------------------




--------------------------------------- Iteration      1(  15)  ---------------------------------------


    POTLOK:  cpu time    0.0500: real time    0.0502
    SETDIJ:  cpu time    0.6199: real time    0.6213
    EDDIAG:  cpu time    0.8330: real time    0.8350
  RMM-DIIS:  cpu time    4.1317: real time    4.1415
    ORTHCH:  cpu time    0.0867: real time    0.0869
 BZINTS: Fermi energy:  6.137928; 64.000000 electrons
         Band energy: 231.448591;  BLOECHL correction: -0.035721
       DOS:  cpu time    0.1527: real time    0.1530
    CHARGE:  cpu time    0.3096: real time    0.3103
    MIXING:  cpu time    0.0018: real time    0.0018
    --------------------------------------------
      LOOP:  cpu time    6.1855: real time    6.2002

 eigenvalue-minimisations  : 14707
 total energy-change (2. order) :-0.4687372E-02  (-0.3013591E-02)
 number of electron      64.0000065 magnetization       0.0000000
 augmentation part       33.1137388 magnetization       0.0000000

 Broyden mixing:
  rms(total) = 0.42878E-01    rms(broyden)= 0.42868E-01
  rms(prec ) = 0.60820E-01
  weight for this iteration     100.00

 eigenvalues of (default mixing * dielectric matrix)
  average eigenvalue GAMMA=   0.8863
  3.0162  1.6986  0.8758  0.8758  0.6616  0.6487  0.6487  0.1115  0.1629  0.1629

 Free energy of the ion-electron system (eV)
  ---------------------------------------------------
  alpha Z        PSCENC =       488.89906520
  Ewald energy   TEWEN  =     -4743.70317337
  -Hartree energ DENC   =      -754.51512483
  -exchange      EXHF   =         0.00000000
  -V(xc)+E(xc)   XCENC  =        31.52980716
  PAW double counting   =      5697.81145666    -5769.72556609
  entropy T*S    EENTRO =         0.00000000
  eigenvalues    EBANDS =       231.44859061
  atomic energy  EATOM  =      4754.50144563
  Solvation  Ediel_sol  =         0.00000000
  ---------------------------------------------------
  free energy    TOTEN  =       -63.75349903 eV

  energy without entropy =      -63.75349903  energy(sigma->0) =      -63.75349903


--------------------------------------------------------------------------------------------------------




--------------------------------------- Iteration      1(  16)  ---------------------------------------


    POTLOK:  cpu time    0.0503: real time    0.0506
    SETDIJ:  cpu time    0.6080: real time    0.6094
    EDDIAG:  cpu time    0.8367: real time    0.8387
  RMM-DIIS:  cpu time    3.9479: real time    3.9601
    ORTHCH:  cpu time    0.0855: real time    0.0857
 BZINTS: Fermi energy:  6.141926; 64.000000 electrons
         Band energy: 231.653419;  BLOECHL correction: -0.035677
       DOS:  cpu time    0.1706: real time    0.1710
    CHARGE:  cpu time    0.2941: real time    0.2948
    MIXING:  cpu time    0.0016: real time    0.0016
    --------------------------------------------
      LOOP:  cpu time    5.9947: real time    6.0120

 eigenvalue-minimisations  : 13975
 total energy-change (2. order) :-0.1701523E-02  (-0.1244117E-02)
 number of electron      64.0000065 magnetization       0.0000000
 augmentation part       33.1060444 magnetization       0.0000000

 Broyden mixing:
  rms(total) = 0.29883E-01    rms(broyden)= 0.29877E-01
  rms(prec ) = 0.44849E-01
  weight for this iteration     100.00

 eigenvalues of (default mixing * dielectric matrix)
  average eigenvalue GAMMA=   1.0036
  3.7044  2.3103  1.0483  0.8677  0.8677  0.6193  0.6193  0.5652  0.1115  0.1629
  0.1629

 Free energy of the ion-electron system (eV)
  ---------------------------------------------------
  alpha Z        PSCENC =       488.89906520
  Ewald energy   TEWEN  =     -4743.70317337
  -Hartree energ DENC   =      -754.89382313
  -exchange      EXHF   =         0.00000000
  -V(xc)+E(xc)   XCENC  =        31.57411898
  PAW double counting   =      5697.80874277    -5769.59499586
  entropy T*S    EENTRO =         0.00000000
  eigenvalues    EBANDS =       231.65341923
  atomic energy  EATOM  =      4754.50144563
  Solvation  Ediel_sol  =         0.00000000
  ---------------------------------------------------
  free energy    TOTEN  =       -63.75520055 eV

  energy without entropy =      -63.75520055  energy(sigma->0) =      -63.75520055


--------------------------------------------------------------------------------------------------------




--------------------------------------- Iteration      1(  17)  ---------------------------------------


    POTLOK:  cpu time    0.0460: real time    0.0462
    SETDIJ:  cpu time    0.5369: real time    0.5382
    EDDIAG:  cpu time    0.8230: real time    0.8250
  RMM-DIIS:  cpu time    3.9858: real time    3.9954
    ORTHCH:  cpu time    0.0860: real time    0.0862
 BZINTS: Fermi energy:  6.144393; 64.000000 electrons
         Band energy: 231.593957;  BLOECHL correction: -0.035782
       DOS:  cpu time    0.1688: real time    0.1696
    CHARGE:  cpu time    0.3028: real time    0.3035
    MIXING:  cpu time    0.0019: real time    0.0019
    --------------------------------------------
      LOOP:  cpu time    5.9513: real time    5.9660

 eigenvalue-minimisations  : 14321
 total energy-change (2. order) :-0.8204086E-03  (-0.6082101E-03)
 number of electron      64.0000065 magnetization       0.0000000
 augmentation part       33.1059274 magnetization       0.0000000

 Broyden mixing:
  rms(total) = 0.19388E-01    rms(broyden)= 0.19382E-01
  rms(prec ) = 0.25670E-01
  weight for this iteration     100.00

 eigenvalues of (default mixing * dielectric matrix)
  average eigenvalue GAMMA=   1.1066
  4.5141  2.7364  1.2381  0.9214  0.9214  0.6184  0.6184  0.6367  0.6367  0.1115
  0.1629  0.1629

 Free energy of the ion-electron system (eV)
  ---------------------------------------------------
  alpha Z        PSCENC =       488.89906520
  Ewald energy   TEWEN  =     -4743.70317337
  -Hartree energ DENC   =      -754.95022818
  -exchange      EXHF   =         0.00000000
  -V(xc)+E(xc)   XCENC  =        31.60284995
  PAW double counting   =      5698.33941321    -5770.03935061
  entropy T*S    EENTRO =         0.00000000
  eigenvalues    EBANDS =       231.59395721
  atomic energy  EATOM  =      4754.50144563
  Solvation  Ediel_sol  =         0.00000000
  ---------------------------------------------------
  free energy    TOTEN  =       -63.75602096 eV

  energy without entropy =      -63.75602096  energy(sigma->0) =      -63.75602096


--------------------------------------------------------------------------------------------------------




--------------------------------------- Iteration      1(  18)  ---------------------------------------


    POTLOK:  cpu time    0.0530: real time    0.0536
    SETDIJ:  cpu time    0.6211: real time    0.6228
    EDDIAG:  cpu time    0.8387: real time    0.8410
  RMM-DIIS:  cpu time    3.9926: real time    4.0023
    ORTHCH:  cpu time    0.0870: real time    0.0872
 BZINTS: Fermi energy:  6.143644; 64.000000 electrons
         Band energy: 231.517529;  BLOECHL correction: -0.035786
       DOS:  cpu time    0.1703: real time    0.1707
    CHARGE:  cpu time    0.3095: real time    0.3102
    MIXING:  cpu time    0.0018: real time    0.0018
    --------------------------------------------
      LOOP:  cpu time    6.0739: real time    6.0896

 eigenvalue-minimisations  : 14287
 total energy-change (2. order) :-0.3584275E-03  (-0.3361686E-03)
 number of electron      64.0000065 magnetization       0.0000000
 augmentation part       33.1073469 magnetization       0.0000000

 Broyden mixing:
  rms(total) = 0.86550E-02    rms(broyden)= 0.86478E-02
  rms(prec ) = 0.97397E-02
  weight for this iteration     100.00

 eigenvalues of (default mixing * dielectric matrix)
  average eigenvalue GAMMA=   1.1904
  5.1667  3.0452  1.4642  1.0027  1.0027  0.7958  0.7550  0.6090  0.6090  0.5882
  0.1115  0.1629  0.1629

 Free energy of the ion-electron system (eV)
  ---------------------------------------------------
  alpha Z        PSCENC =       488.89906520
  Ewald energy   TEWEN  =     -4743.70317337
  -Hartree energ DENC   =      -754.95743307
  -exchange      EXHF   =         0.00000000
  -V(xc)+E(xc)   XCENC  =        31.60431794
  PAW double counting   =      5695.17575860    -5766.79388881
  entropy T*S    EENTRO =         0.00000000
  eigenvalues    EBANDS =       231.51752850
  atomic energy  EATOM  =      4754.50144563
  Solvation  Ediel_sol  =         0.00000000
  ---------------------------------------------------
  free energy    TOTEN  =       -63.75637939 eV

  energy without entropy =      -63.75637939  energy(sigma->0) =      -63.75637939


--------------------------------------------------------------------------------------------------------




--------------------------------------- Iteration      1(  19)  ---------------------------------------


    POTLOK:  cpu time    0.0503: real time    0.0505
    SETDIJ:  cpu time    0.6217: real time    0.6231
    EDDIAG:  cpu time    0.8360: real time    0.8380
  RMM-DIIS:  cpu time    4.1931: real time    4.2032
    ORTHCH:  cpu time    0.0858: real time    0.0860
 BZINTS: Fermi energy:  6.143453; 64.000000 electrons
         Band energy: 231.522009;  BLOECHL correction: -0.035827
       DOS:  cpu time    0.1658: real time    0.1662
    CHARGE:  cpu time    0.3094: real time    0.3101
    MIXING:  cpu time    0.0020: real time    0.0020
    --------------------------------------------
      LOOP:  cpu time    6.2639: real time    6.2791

 eigenvalue-minimisations  : 15354
 total energy-change (2. order) :-0.2454314E-03  (-0.1485731E-03)
 number of electron      64.0000065 magnetization       0.0000000
 augmentation part       33.1068142 magnetization       0.0000000

 Broyden mixing:
  rms(total) = 0.65632E-02    rms(broyden)= 0.65575E-02
  rms(prec ) = 0.76079E-02
  weight for this iteration     100.00

 eigenvalues of (default mixing * dielectric matrix)
  average eigenvalue GAMMA=   1.2459
  6.1406  2.9356  1.6407  1.1947  0.1115  0.1629  0.1629  0.8623  0.8623  0.9106
  0.6224  0.6224  0.6071  0.6071

 Free energy of the ion-electron system (eV)
  ---------------------------------------------------
  alpha Z        PSCENC =       488.89906520
  Ewald energy   TEWEN  =     -4743.70317337
  -Hartree energ DENC   =      -754.93772879
  -exchange      EXHF   =         0.00000000
  -V(xc)+E(xc)   XCENC  =        31.59456801
  PAW double counting   =      5693.93865039    -5765.57146119
  entropy T*S    EENTRO =         0.00000000
  eigenvalues    EBANDS =       231.52200930
  atomic energy  EATOM  =      4754.50144563
  Solvation  Ediel_sol  =         0.00000000
  ---------------------------------------------------
  free energy    TOTEN  =       -63.75662482 eV

  energy without entropy =      -63.75662482  energy(sigma->0) =      -63.75662482


--------------------------------------------------------------------------------------------------------




--------------------------------------- Iteration      1(  20)  ---------------------------------------


    POTLOK:  cpu time    0.0507: real time    0.0510
    SETDIJ:  cpu time    0.6162: real time    0.6177
    EDDIAG:  cpu time    0.8213: real time    0.8233
  RMM-DIIS:  cpu time    3.9294: real time    3.9388
    ORTHCH:  cpu time    0.0857: real time    0.0859
 BZINTS: Fermi energy:  6.143194; 64.000000 electrons
         Band energy: 231.484588;  BLOECHL correction: -0.035742
       DOS:  cpu time    0.1685: real time    0.1689
    CHARGE:  cpu time    0.3079: real time    0.3086
    MIXING:  cpu time    0.0020: real time    0.0021
    --------------------------------------------
      LOOP:  cpu time    5.9817: real time    5.9962

 eigenvalue-minimisations  : 13968
 total energy-change (2. order) :-0.1044026E-04  (-0.9090759E-04)
 number of electron      64.0000065 magnetization      -0.0000000
 augmentation part       33.1074542 magnetization      -0.0000000

 Broyden mixing:
  rms(total) = 0.68201E-02    rms(broyden)= 0.68166E-02
  rms(prec ) = 0.99641E-02
  weight for this iteration     100.00

 eigenvalues of (default mixing * dielectric matrix)
  average eigenvalue GAMMA=   1.3209
  6.5828  3.2248  2.1035  1.4522  0.9370  0.9370  0.1115  0.1629  0.1629  0.9081
  0.6190  0.6190  0.7280  0.6694  0.5960

 Free energy of the ion-electron system (eV)
  ---------------------------------------------------
  alpha Z        PSCENC =       488.89906520
  Ewald energy   TEWEN  =     -4743.70317337
  -Hartree energ DENC   =      -754.83566136
  -exchange      EXHF   =         0.00000000
  -V(xc)+E(xc)   XCENC  =        31.59510098
  PAW double counting   =      5696.19016376    -5767.88816403
  entropy T*S    EENTRO =         0.00000000
  eigenvalues    EBANDS =       231.48458793
  atomic energy  EATOM  =      4754.50144563
  Solvation  Ediel_sol  =         0.00000000
  ---------------------------------------------------
  free energy    TOTEN  =       -63.75663526 eV

  energy without entropy =      -63.75663526  energy(sigma->0) =      -63.75663526


--------------------------------------------------------------------------------------------------------




--------------------------------------- Iteration      1(  21)  ---------------------------------------


    POTLOK:  cpu time    0.0488: real time    0.0490
    SETDIJ:  cpu time    0.6038: real time    0.6053
    EDDIAG:  cpu time    0.7976: real time    0.7995
  RMM-DIIS:  cpu time    3.7152: real time    3.7240
    ORTHCH:  cpu time    0.0800: real time    0.0802
 BZINTS: Fermi energy:  6.142603; 64.000000 electrons
         Band energy: 231.458422;  BLOECHL correction: -0.035749
       DOS:  cpu time    0.1427: real time    0.1430
    CHARGE:  cpu time    0.2708: real time    0.2715
    MIXING:  cpu time    0.0021: real time    0.0020
    --------------------------------------------
      LOOP:  cpu time    5.6610: real time    5.6746

 eigenvalue-minimisations  : 14118
 total energy-change (2. order) :-0.3954717E-04  (-0.6102556E-04)
 number of electron      64.0000065 magnetization      -0.0000000
 augmentation part       33.1080373 magnetization      -0.0000000

 Broyden mixing:
  rms(total) = 0.26095E-02    rms(broyden)= 0.26041E-02
  rms(prec ) = 0.29300E-02
  weight for this iteration     100.00

 eigenvalues of (default mixing * dielectric matrix)
  average eigenvalue GAMMA=   1.3414
  6.8030  3.5981  2.3585  1.5603  0.9534  0.9534  0.1115  0.1629  0.1629  0.8895
  0.8481  0.6182  0.6182  0.7029  0.5863  0.5359

 Free energy of the ion-electron system (eV)
  ---------------------------------------------------
  alpha Z        PSCENC =       488.89906520
  Ewald energy   TEWEN  =     -4743.70317337
  -Hartree energ DENC   =      -754.76984932
  -exchange      EXHF   =         0.00000000
  -V(xc)+E(xc)   XCENC  =        31.58459523
  PAW double counting   =      5696.46517856    -5768.19235898
  entropy T*S    EENTRO =         0.00000000
  eigenvalues    EBANDS =       231.45842225
[...]
     23       4.6120      1.00000
     24       4.7710      1.00000
     25       5.0241      1.00000
     26       5.1500      1.00000
     27       5.2022      1.00000
     28       5.4350      1.00000
     29       5.5874      1.00000
     30       5.7784      1.00000
     31       5.9126      1.00000
     32       5.9494      1.06140
     33       6.0190      0.91133
     34       6.1165      0.52101
     35       6.2449     -0.03588
     36       6.4650      0.00000
     37       6.6254      0.00000
     38       6.8153      0.00000

 k-point    63 :       0.3125    0.4375    0.4375
  band No.  band energies     occupation 
      1       0.9740      1.00000
      2       1.0455      1.00000
      3       1.5031      1.00000
      4       1.5748      1.00000
      5       2.0327      1.00000
      6       2.0607      1.00000
      7       2.2106      1.00000
      8       2.2623      1.00000
      9       2.8949      1.00000
     10       3.0703      1.00000
     11       3.1844      1.00000
     12       3.2891      1.00000
     13       3.3236      1.00000
     14       3.3727      1.00000
     15       3.4172      1.00000
     16       3.5669      1.00000
     17       3.6391      1.00000
     18       3.7401      1.00000
     19       3.8799      1.00000
     20       3.9474      1.00000
     21       4.2348      1.00000
     22       4.3738      1.00000
     23       4.4369      1.00000
     24       4.5651      1.00000
     25       4.9537      1.00000
     26       5.0138      1.00000
     27       5.2613      1.00000
     28       5.4466      1.00000
     29       5.6958      1.00000
     30       5.8128      1.00000
     31       6.0729      1.00000
     32       6.1758      0.29253
     33       6.3586     -0.03238
     34       6.4422     -0.04357
     35       6.6172      0.00000
     36       6.8487      0.00000
     37       6.9429      0.00000
     38       7.1363      0.00000

 k-point    64 :       0.4375    0.4375    0.4375
  band No.  band energies     occupation 
      1       1.3926      1.00000
      2       1.4437      1.00000
      3       1.5465      1.00000
      4       1.6316      1.00000
      5       1.8380      1.00000
      6       1.9391      1.00000
      7       1.9496      1.00000
      8       2.0233      1.00000
      9       2.7873      1.00000
     10       2.9729      1.00000
     11       3.1149      1.00000
     12       3.1210      1.00000
     13       3.2889      1.00000
     14       3.5060      1.00000
     15       3.6743      1.00000
     16       3.7844      1.00000
     17       4.0013      1.00000
     18       4.1089      1.00000
     19       4.3059      1.00000
     20       4.5175      1.00000
     21       4.5769      1.00000
     22       4.6492      1.00000
     23       4.8223      1.00000
     24       4.9345      1.00000
     25       5.0609      1.00000
     26       5.1104      1.00000
     27       5.2853      1.00000
     28       5.4070      1.00000
     29       5.6531      1.00000
     30       5.6984      1.00000
     31       6.0181      1.00000
     32       6.1690     -0.00162
     33       6.5005      0.00000
     34       6.6565      0.00000
     35       6.9897      0.00000
     36       7.1640      0.00000
     37       7.2046      0.00000
     38       7.2997      0.00000


--------------------------------------------------------------------------------------------------------


 soft charge-density along one line, spin component           1
         0         1         2         3         4         5         6         7         8         9
 total charge-density along one line
 
 soft charge-density along one line, spin component           2
         0         1         2         3         4         5         6         7         8         9
 total charge-density along one line
 
 pseudopotential strength for first ion, spin component:           1
 -5.489   0.000   0.000   0.099  -0.000  -6.023   0.000   0.000
  0.000  -5.498  -0.016  -0.000   0.027   0.000  -6.031  -0.015
  0.000  -0.016  -5.736  -0.000  -0.029   0.000  -0.015  -6.262
  0.099  -0.000  -0.000  -5.489  -0.000   0.096  -0.000  -0.000
 -0.000   0.027  -0.029  -0.000  -5.702  -0.000   0.026  -0.028
 -6.023   0.000   0.000   0.096  -0.000  -6.515   0.000   0.000
  0.000  -6.031  -0.015  -0.000   0.026   0.000  -6.523  -0.015
  0.000  -0.015  -6.262  -0.000  -0.028   0.000  -0.015  -6.746
  0.096  -0.000  -0.000  -6.023  -0.000   0.093  -0.000  -0.000
 -0.000   0.026  -0.028  -0.000  -6.229  -0.000   0.025  -0.028
  0.000  -0.007   0.003   0.000  -0.005   0.000  -0.006   0.003
  0.000  -0.012   0.005   0.000  -0.009   0.000  -0.012   0.005
  0.000   0.003   0.003  -0.000   0.004   0.000   0.002   0.002
 -0.000  -0.003   0.005   0.000   0.000  -0.000  -0.002   0.005
 -0.003  -0.000  -0.000   0.003  -0.000  -0.003  -0.000  -0.000
  0.000   0.003   0.003  -0.000   0.005   0.000   0.003   0.003
 -0.000  -0.003   0.006   0.000   0.000  -0.000  -0.003   0.006
 -0.003  -0.000  -0.000   0.003  -0.000  -0.003  -0.000  -0.000
 pseudopotential strength for first ion, spin component:           2
 -4.306  -0.000   0.000  -0.034  -0.000  -4.876  -0.000   0.000
 -0.000  -4.357   0.051  -0.000  -0.088  -0.000  -4.926   0.049
  0.000   0.051  -4.074   0.000  -0.011   0.000   0.049  -4.653
 -0.034  -0.000   0.000  -4.306  -0.000  -0.033  -0.000   0.000
 -0.000  -0.088  -0.011  -0.000  -4.061  -0.000  -0.085  -0.011
 -4.876  -0.000   0.000  -0.033  -0.000  -5.403  -0.000   0.000
 -0.000  -4.926   0.049  -0.000  -0.085  -0.000  -5.451   0.048
  0.000   0.049  -4.653   0.000  -0.011   0.000   0.048  -5.188
 -0.033  -0.000   0.000  -4.876  -0.000  -0.032  -0.000   0.000
 -0.000  -0.085  -0.011  -0.000  -4.640  -0.000  -0.082  -0.011
  0.000  -0.013   0.003   0.000  -0.004   0.000  -0.013   0.002
  0.000  -0.024   0.005   0.000  -0.008   0.000  -0.024   0.005
  0.000   0.002  -0.000  -0.000  -0.000   0.000   0.002  -0.000
 -0.000  -0.002  -0.000   0.000  -0.000   0.000  -0.002  -0.000
 -0.001  -0.000  -0.000   0.001  -0.000  -0.001   0.000  -0.000
  0.000   0.002  -0.001  -0.000  -0.001   0.000   0.002  -0.001
 -0.000  -0.002  -0.001  -0.000  -0.000  -0.000  -0.002  -0.001
 -0.001  -0.000  -0.000   0.001  -0.000  -0.001  -0.000  -0.000
 total augmentation occupancy for first ion, spin component:           1
  1.953  -0.000  -0.000   0.191   0.000  -0.983   0.000   0.000  -0.095   0.000   0.000   0.000   0.000   0.000   0.005   0.000
  0.000   1.949   0.065  -0.000  -0.113   0.000  -0.955  -0.066  -0.000   0.115   0.022  -0.010   0.006  -0.006   0.000   0.000
  0.000   0.065   3.249   0.000  -0.137   0.000  -0.068  -2.062   0.000   0.088  -0.014   0.001  -0.006  -0.001  -0.000  -0.001
  0.191   0.000   0.000   1.953   0.000  -0.095   0.000   0.000  -0.983   0.000  -0.000   0.000   0.000   0.000  -0.005   0.000
  0.000  -0.113  -0.137  -0.000   3.407   0.000   0.118   0.088   0.000  -2.164   0.025  -0.002   0.003  -0.007  -0.000  -0.001
 -0.983   0.000   0.000  -0.095   0.000   1.417  -0.000   0.000   0.073   0.000  -0.000  -0.000   0.000  -0.000  -0.003   0.000
  0.000  -0.955  -0.068  -0.000   0.118   0.000   1.380   0.058   0.000  -0.100  -0.001   0.002  -0.003   0.003   0.000  -0.000
  0.000  -0.066  -2.062   0.000   0.088   0.000   0.058   2.096   0.000  -0.069   0.004   0.001   0.009   0.007   0.000   0.000
 -0.095   0.000   0.000  -0.983   0.000   0.073   0.000   0.000   1.417   0.000  -0.000   0.000   0.000   0.000   0.003   0.000
  0.000   0.115   0.088  -0.000  -2.164   0.000  -0.100  -0.069   0.000   2.176  -0.007  -0.002   0.003   0.006   0.000   0.000
  0.000   0.022  -0.014   0.000   0.025   0.000  -0.001   0.004   0.000  -0.007   2.402  -0.270   0.005  -0.005   0.000   0.000
  0.000  -0.010   0.001   0.000  -0.002   0.000   0.002   0.001   0.000  -0.002  -0.270   0.036   0.001  -0.001   0.000  -0.000
 -0.000   0.006  -0.006   0.000   0.003   0.000  -0.003   0.009   0.000   0.003   0.005   0.001   0.297  -0.007   0.000  -0.024
  0.000  -0.006  -0.001  -0.000  -0.007   0.000   0.003   0.007   0.000   0.006  -0.005  -0.001  -0.007   0.297  -0.000   0.000
  0.005   0.000   0.000  -0.005   0.000  -0.003   0.000   0.000   0.003  -0.000   0.000   0.000  -0.000  -0.000   0.298   0.000
 -0.000   0.000  -0.001  -0.000  -0.001   0.000  -0.000   0.000   0.000   0.000   0.000  -0.000  -0.024   0.000   0.000   0.002
  0.000  -0.000  -0.001   0.000  -0.000   0.000   0.000   0.000   0.000   0.000  -0.000   0.000   0.000  -0.024   0.000  -0.000
 -0.000   0.000  -0.000   0.000   0.000   0.000   0.000   0.000  -0.000   0.000   0.000   0.000   0.000   0.000  -0.025   0.000
 total augmentation occupancy for first ion, spin component:           2
  1.181  -0.000   0.000   0.123  -0.000  -0.387   0.000   0.000  -0.235   0.000   0.000   0.000   0.000   0.000   0.002  -0.000
  0.000   1.055   0.188   0.000  -0.326  -0.000  -0.335  -0.078   0.000   0.136  -0.081   0.004  -0.001   0.001   0.000   0.001
  0.000   0.188   2.549   0.000  -0.107   0.000  -0.072  -1.130   0.000   0.091  -0.011   0.001  -0.014  -0.014   0.000   0.000
  0.123  -0.000   0.000   1.181   0.000  -0.235   0.000   0.000  -0.387  -0.000   0.000   0.000  -0.000  -0.000  -0.002   0.000
  0.000  -0.326  -0.107  -0.000   2.673   0.000   0.125   0.091  -0.000  -1.235   0.019  -0.001  -0.008  -0.009  -0.000   0.001
 -0.387  -0.000   0.000  -0.235   0.000  -0.089   0.000   0.000   0.249   0.000   0.000   0.000  -0.000   0.000   0.001   0.000
 -0.000  -0.335  -0.072   0.000   0.125   0.000  -0.094   0.007   0.000  -0.013   0.035  -0.011  -0.003   0.003   0.000  -0.000
 -0.000  -0.078  -1.130   0.000   0.091  -0.000   0.007   0.361   0.000  -0.062   0.018   0.000   0.002  -0.004   0.000  -0.000
 -0.235   0.000   0.000  -0.387   0.000   0.249   0.000   0.000  -0.089   0.000   0.000  -0.000   0.000  -0.000  -0.001   0.000
  0.000   0.136   0.091   0.000  -1.235   0.000  -0.013  -0.062   0.000   0.433  -0.031  -0.000  -0.006   0.005   0.000  -0.000
  0.000  -0.081  -0.011   0.000   0.019   0.000   0.035   0.018   0.000  -0.031  -0.200   0.080   0.013  -0.013   0.000  -0.000
  0.000   0.004   0.001   0.000  -0.001   0.000  -0.011   0.000  -0.000  -0.000   0.080  -0.014   0.000  -0.000   0.000  -0.000
  0.000  -0.001  -0.014  -0.000  -0.008   0.000  -0.003   0.002   0.000  -0.006   0.013   0.000   0.002   0.003   0.000   0.005
  0.000   0.001  -0.014   0.000  -0.009   0.000   0.003  -0.004   0.000   0.005  -0.013  -0.000   0.003   0.002   0.000  -0.002
  0.002   0.000  -0.000  -0.002  -0.000   0.001   0.000   0.000  -0.001   0.000   0.000   0.000   0.000   0.000  -0.015   0.000
  0.000   0.001   0.000   0.000   0.001   0.000  -0.000  -0.000   0.000  -0.000  -0.000  -0.000   0.005  -0.002   0.000  -0.001
  0.000  -0.001   0.001   0.000  -0.000  -0.000   0.000  -0.000   0.000   0.000   0.000   0.000  -0.002   0.005   0.000   0.000
 -0.000   0.000   0.000   0.000   0.000  -0.000   0.000   0.000   0.000   0.000   0.000   0.000   0.000   0.000   0.005   0.000


------------------------ aborting loop because EDIFF is reached ----------------------------------------


 


 total charge     
 
# of ion       s       p       d       tot
------------------------------------------
    1        0.492   0.554   6.233   7.279
    2        0.491   0.550   6.248   7.289
    3        0.497   0.554   6.212   7.263
    4        0.495   0.552   6.222   7.269
    5        0.495   0.552   6.222   7.269
    6        0.497   0.554   6.212   7.263
    7        0.491   0.550   6.248   7.289
    8        0.492   0.554   6.233   7.279
--------------------------------------------------
tot          3.951   4.421  49.828  58.201
 


 magnetization (x)
 
# of ion       s       p       d       tot
------------------------------------------
    1        0.009   0.012   1.918   1.940
    2        0.015   0.003   1.541   1.559
    3        0.026   0.046   1.848   1.921
    4        0.008   0.009   2.192   2.209
    5       -0.008  -0.009  -2.192  -2.209
    6       -0.026  -0.046  -1.848  -1.921
    7       -0.015  -0.003  -1.541  -1.559
    8       -0.009  -0.012  -1.918  -1.940
--------------------------------------------------
tot          0.000   0.000  -0.000  -0.000
 
    CHARGE:  cpu time    0.2895: real time    0.2902
    FORLOC:  cpu time    0.0021: real time    0.0021
    FORNL :  cpu time    1.5340: real time    1.5376
    STRESS:  cpu time    1.4783: real time    1.4818
    FORCOR:  cpu time    0.0485: real time    0.0486
    FORHAR:  cpu time    0.0060: real time    0.0060
    MIXING:  cpu time    0.0032: real time    0.0032
    OFIELD:  cpu time    0.0000: real time    0.0000

  FORCE on cell =-STRESS in cart. coord.  units (eV):
  Direction    XX          YY          ZZ          XY          YZ          ZX
  --------------------------------------------------------------------------------------
  Alpha Z   488.89907   488.89907   488.89907
  Ewald   -1581.23673 -1581.23673 -1581.23673     0.00000     0.00000    -0.00000
  Hartree   253.00415   250.88119   250.88119     0.00000     0.55356    -0.00000
  E(xc)    -315.61923  -315.32001  -315.32001     0.00000    -0.09162    -0.00000
  Local     467.40947   473.21413   473.21413     0.00000    -1.47166     0.00000
  n-local  -206.32484  -207.26198  -206.46810     4.16124    -0.82739     2.80545
  augment   309.37945   307.30972   307.30972    -0.00000     0.75904     0.00000
  Kinetic   585.43367   581.86285   581.46671     7.29313     0.34461     6.25152
  Fock        0.00000     0.00000     0.00000     0.00000     0.00000     0.00000
  -------------------------------------------------------------------------------------
  Total       0.94501    -1.45290    -1.45290     0.00000    -0.75434     0.00000
  in kB      16.73476   -25.72880   -25.72880     0.00000   -13.35840     0.00000
  external pressure =      -11.57 kB  Pullay stress =        0.00 kB


 VOLUME and BASIS-vectors are now :
 -----------------------------------------------------------------------------
  energy-cutoff  :      520.00
  volume of cell :       90.47
      direct lattice vectors                 reciprocal lattice vectors
     2.828059000  0.000000000  0.000000000     0.353599412  0.000000000  0.000000000
     0.000000000  2.828059000  2.828059000     0.000000000  0.176799706  0.176799706
     0.000000000 -5.656118000  5.656118000     0.000000000 -0.088399853  0.088399853

  length of vectors
     2.828059000  3.999479393  7.998958786     0.353599412  0.250032542  0.125016271


 FORCES acting on ions
    electron-ion (+dipol)            ewald-force                    non-local-force                 convergence-correction
 -----------------------------------------------------------------------------------------------
   -.960E-14 -.488E-01 0.488E-01   0.130E-13 -.284E-13 -.284E-13   0.000E+00 -.296E-01 0.296E-01   -.126E-13 0.157E-03 -.157E-03
   -.853E-14 0.306E+00 -.306E+00   0.121E-13 -.184E-13 -.383E-13   0.000E+00 -.157E+00 0.157E+00   -.124E-13 0.383E-03 -.383E-03
   -.986E-14 0.131E+00 -.131E+00   0.119E-13 -.284E-13 -.284E-13   0.000E+00 -.422E-01 0.422E-01   -.129E-13 -.245E-03 0.245E-03
   0.151E-12 -.641E+00 0.641E+00   -.395E-14 0.000E+00 0.000E+00   0.000E+00 0.328E+00 -.328E+00   -.947E-14 0.263E-03 -.263E-03
   -.849E-14 0.641E+00 -.641E+00   0.913E-14 -.102E-16 -.153E-14   0.000E+00 -.328E+00 0.328E+00   -.127E-13 -.263E-03 0.263E-03
   0.152E-12 -.131E+00 0.131E+00   -.669E-14 0.387E-13 0.186E-13   0.000E+00 0.422E-01 -.422E-01   -.133E-13 0.245E-03 -.245E-03
   0.151E-12 -.306E+00 0.306E+00   -.697E-14 0.284E-13 0.284E-13   0.000E+00 0.157E+00 -.157E+00   -.105E-13 -.383E-03 0.383E-03
   0.152E-12 0.488E-01 -.488E-01   -.785E-14 0.280E-13 0.284E-13   0.000E+00 0.296E-01 -.296E-01   -.118E-13 -.157E-03 0.157E-03
 -----------------------------------------------------------------------------------------------
   0.569E-12 0.183E-11 -.149E-11   0.207E-13 0.198E-13 -.213E-13   0.000E+00 -.867E-16 0.312E-16   -.955E-13 0.453E-13 -.592E-13
 
 
 POSITION                                       TOTAL-FORCE (eV/Angst)
 -----------------------------------------------------------------------------------
      0.00000      0.00000      0.00000         0.000000     -0.078195      0.078195
      0.00000      0.00000      2.82806         0.000000      0.149467     -0.149467
      0.00000     -2.82806      2.82806         0.000000      0.088172     -0.088172
      1.41403      1.41403      1.41403         0.000000     -0.312805      0.312805
      0.00000     -2.82806      5.65612         0.000000      0.312805     -0.312805
      1.41403     -1.41403      1.41403         0.000000     -0.088172      0.088172
      1.41403     -1.41403      4.24209         0.000000     -0.149467      0.149467
      1.41403     -4.24209      4.24209         0.000000      0.078195     -0.078195
 -----------------------------------------------------------------------------------
    total drift:                                0.000000      0.000000     -0.000000


--------------------------------------------------------------------------------------------------------



  FREE ENERGIE OF THE ION-ELECTRON SYSTEM (eV)
  ---------------------------------------------------
  free  energy   TOTEN  =       -63.75667804 eV

  energy  without entropy=      -63.75667804  energy(sigma->0) =      -63.75667804
 


--------------------------------------------------------------------------------------------------------


    POTLOK:  cpu time    0.6439: real time    0.6455


--------------------------------------------------------------------------------------------------------


     LOOP+:  cpu time  159.7649: real time  160.2412
    4ORBIT:  cpu time    0.0000: real time    0.0000
 


 total charge     
 
# of ion       s       p       d       tot
------------------------------------------
    1        0.492   0.554   6.233   7.279
    2        0.491   0.550   6.248   7.289
    3        0.497   0.554   6.212   7.263
    4        0.495   0.552   6.222   7.269
    5        0.495   0.552   6.222   7.269
    6        0.497   0.554   6.212   7.263
    7        0.491   0.550   6.248   7.289
    8        0.492   0.554   6.233   7.279
--------------------------------------------------
tot          3.951   4.421  49.828  58.201
 


 magnetization (x)
 
# of ion       s       p       d       tot
------------------------------------------
    1        0.009   0.012   1.918   1.940
    2        0.015   0.003   1.541   1.559
    3        0.026   0.046   1.848   1.921
    4        0.008   0.009   2.192   2.209
    5       -0.008  -0.009  -2.192  -2.209
    6       -0.026  -0.046  -1.848  -1.921
    7       -0.015  -0.003  -1.541  -1.559
    8       -0.009  -0.012  -1.918  -1.940
--------------------------------------------------
tot          0.000   0.000  -0.000  -0.000
 
 BZINTS: Fermi energy:  6.142150; 64.000000 electrons
         Band energy: 231.462551;  BLOECHL correction: -0.035723

 total amount of memory used by VASP MPI-rank0    67190. kBytes
=======================================================================

   base      :      30000. kBytes
   nonl-proj :       5793. kBytes
   fftplans  :       1786. kBytes
   grid      :       4023. kBytes
   one-center:         62. kBytes
   wavefun   :      25526. kBytes
 
  
  
 General timing and accounting informations for this job:
 ========================================================
  
                  Total CPU time used (sec):      163.202
                            User time (sec):      162.462
                          System time (sec):        0.740
                         Elapsed time (sec):      164.233
  
                   Maximum memory used (kb):       92264.
                   Average memory used (kb):           0.
  
                          Minor page faults:        40764
                          Major page faults:            0
                 Voluntary context switches:         1377
