unknown system                          
   1.00000000000000     
     2.500784    0.000000    0.000000
     0.000000    4.331484    0.000000
     0.000000    0.000000    4.033331
   Co
     4
Direct
  0.000000  0.666667  0.750000
  0.000000  0.333333  0.250000
  0.500000  0.166667  0.750000
  0.500000  0.833333  0.250000
 
   40   64   60
 0.85553531192E+01 0.85773599938E+01 0.86433293997E+01 0.87531617195E+01 0.89068522021E+01
 0.91046681628E+01 0.93472744137E+01 0.96357055636E+01 0.99710915050E+01 0.10354076566E+02
 0.10783930167E+02 0.11257420879E+02 0.11767609104E+02 0.12302794717E+02 0.12845914731E+02
 0.13374692473E+02 0.13862764004E+02 0.14281836472E+02 0.14604687620E+02 0.14808556113E+02
 0.14878285910E+02 0.14808556113E+02 0.14604687620E+02 0.14281836472E+02 0.13862764004E+02
 0.13374692473E+02 0.12845914731E+02 0.12302794717E+02 0.11767609104E+02 0.11257420879E+02
 0.10783930167E+02 0.10354076566E+02 0.99710915050E+01 0.96357055636E+01 0.93472744137E+01
 0.91046681628E+01 0.89068522021E+01 0.87531617195E+01 0.86433293997E+01 0.85773599938E+01
 0.85804869910E+01 0.86023958898E+01 0.86680769807E+01 0.87774507995E+01 0.89305558510E+01
 0.91277361430E+01 0.93697746564E+01 0.96578679854E+01 0.99933460948E+01 0.10377076166E+02
 0.10808547704E+02 0.11284711531E+02 0.11798730749E+02 0.12338885842E+02 0.12887937718E+02
 0.13423261014E+02 0.13917983870E+02 0.14343195250E+02 0.14671026999E+02 0.14878147496E+02
 0.14949007996E+02 0.14878147496E+02 0.14671026999E+02 0.14343195250E+02 0.13917983870E+02
 0.13423261014E+02 0.12887937718E+02 0.12338885842E+02 0.11798730749E+02 0.11284711531E+02
 0.10808547704E+02 0.10377076166E+02 0.99933460948E+01 0.96578679854E+01 0.93697746564E+01
 0.91277361430E+01 0.89305558510E+01 0.87774507995E+01 0.86680769807E+01 0.86023958898E+01
 0.86555599895E+01 0.86771865045E+01 0.87420372520E+01 0.88500925519E+01 0.90015178718E+01
 0.91968806366E+01 0.94373065322E+01 0.97244607391E+01 0.10060251114E+02 0.10446187860E+02
 0.10882394974E+02 0.11366348179E+02 0.11891505765E+02 0.12446091013E+02 0.13012355071E+02
 0.13566663790E+02 0.14080675316E+02 0.14523688358E+02 0.14865962993E+02 0.15082514013E+02
 0.15156653522E+02 0.15082514013E+02 0.14865962993E+02 0.14523688358E+02 0.14080675316E+02
 0.13566663790E+02 0.13012355071E+02 0.12446091013E+02 0.11891505765E+02 0.11366348179E+02
 0.10882394974E+02 0.10446187860E+02 0.10060251114E+02 0.97244607391E+01 0.94373065322E+01
 0.91968806366E+01 0.90015178718E+01 0.88500925519E+01 0.87420372520E+01 0.86771865045E+01
 0.87797117413E+01 0.88008984115E+01 0.88644578929E+01 0.89704690507E+01 0.91193017607E+01
 0.93118768649E+01 0.95498560886E+01 0.98356324556E+01 0.10172007403E+02 0.10561482206E+02
 0.11005156213E+02 0.11501309915E+02 0.12043851874E+02 0.12620912853E+02 0.13213953853E+02
 0.13797779444E+02 0.14341771186E+02 0.14812451747E+02 0.15177174910E+02 0.15408384967E+02
 0.15487621726E+02 0.15408384967E+02 0.15177174910E+02 0.14812451747E+02 0.14341771186E+02
 0.13797779444E+02 0.13213953853E+02 0.12620912853E+02 0.12043851874E+02 0.11501309915E+02
 0.11005156213E+02 0.10561482206E+02 0.10172007403E+02 0.98356324556E+01 0.95498560886E+01
 0.93118768649E+01 0.91193017607E+01 0.89704690507E+01 0.88644578929E+01 0.88008984115E+01
 0.89519244517E+01 0.89725351342E+01 0.90344078818E+01 0.91377608676E+01 0.92832418022E+01
 0.94722367731E+01 0.97070975183E+01 0.99911398243E+01 0.10328286008E+02 0.10722270702E+02
 0.11175399365E+02 0.11686941742E+02 0.12251354097E+02 0.12856642378E+02 0.13483278150E+02
 0.14104117560E+02 0.14685699318E+02 0.15191073577E+02 0.15583951600E+02 0.15833550471E+02
 0.15919182129E+02 0.15833550471E+02 0.15583951600E+02 0.15191073577E+02 0.14685699318E+02
 0.14104117560E+02 0.13483278150E+02 0.12856642378E+02 0.12251354097E+02 0.11686941742E+02
 0.11175399365E+02 0.10722270702E+02 0.10328286008E+02 0.99911398243E+01 0.97070975183E+01
 0.94722367731E+01 0.92832418022E+01 0.91377608676E+01 0.90344078818E+01 0.89725351342E+01
 0.91716184151E+01 0.91915040211E+01 0.92512596899E+01 0.93512924836E+01 0.94926068598E+01
 0.96771573716E+01 0.99081068684E+01 0.10189825035E+02 0.10527486967E+02 0.10926182967E+02
 0.11389526467E+02 0.11917846848E+02 0.12506175151E+02 0.13142362877E+02 0.13805791406E+02
 0.14467185106E+02 0.15089972761E+02 0.15633398756E+02 0.16057172826E+02 0.16326959049E+02
 0.16419612621E+02 0.16326959049E+02 0.16057172826E+02 0.15633398756E+02 0.15089972761E+02
 0.14467185106E+02 0.13805791406E+02 0.13142362877E+02 0.12506175151E+02 0.11917846848E+02
 0.11389526467E+02 0.10926182967E+02 0.10527486967E+02 0.10189825035E+02 0.99081068684E+01
 0.96771573716E+01 0.94926068598E+01 0.93512924836E+01 0.92512596899E+01 0.91915040211E+01
 0.94393743825E+01 0.94583107282E+01 0.95153012342E+01 0.96110106257E+01 0.97469004432E+01
 0.99256076839E+01 0.10151214510E+02 0.10429229560E+02 0.10766130470E+02 0.11168373386E+02
 0.11640855517E+02 0.12184921403E+02 0.12796131662E+02 0.13462156488E+02 0.14161290819E+02
 0.14862163164E+02 0.15525151688E+02 0.16105762993E+02 0.16559767491E+02 0.16849323110E+02
 0.16948856233E+02 0.16849323110E+02 0.16559767491E+02 0.16105762993E+02 0.15525151688E+02
 0.14862163164E+02 0.14161290819E+02 0.13462156488E+02 0.12796131662E+02 0.12184921403E+02
 0.11640855517E+02 0.11168373386E+02 0.10766130470E+02 0.10429229560E+02 0.10151214510E+02
 0.99256076839E+01 0.97469004432E+01 0.96110106257E+01 0.95153012342E+01 0.94583107282E+01
 0.97576031707E+01 0.97752106192E+01 0.98283333263E+01 0.99179940899E+01 0.10046252893E+02
 0.10216579010E+02 0.10434097747E+02 0.10705525563E+02 0.11038639685E+02 0.11441187566E+02
 0.11919223611E+02 0.12474966291E+02 0.13104399131E+02 0.13794989823E+02 0.14524051424E+02
 0.15258364874E+02 0.15955637625E+02 0.16568106571E+02 0.17048090650E+02 0.17423438892E+02
 0.17535015889E+02 0.17423438892E+02 0.17048090650E+02 0.16568106571E+02 0.15955637625E+02
 0.15258364874E+02 0.14524051424E+02 0.13794989823E+02 0.13104399131E+02 0.12474966291E+02
 0.11919223611E+02 0.11441187566E+02 0.11038639685E+02 0.10705525563E+02 0.10434097747E+02
 0.10216579010E+02 0.10046252893E+02 0.99179940899E+01 0.98283333263E+01 0.97752106192E+01
 0.10130917879E+02 0.10146579551E+02 0.10194036118E+02 0.10274812789E+02 0.10391769812E+02
 0.10549419837E+02 0.10754101120E+02 0.11013825130E+02 0.11337650972E+02 0.11734498030E+02
 0.12211387891E+02 0.12771208496E+02 0.13410220946E+02 0.14115682473E+02 0.14864119940E+02
 0.15620901931E+02 0.16341729303E+02 0.17040370888E+02 0.17571326743E+02 0.17914572824E+02
 0.18033399378E+02 0.17914572824E+02 0.17571326743E+02 0.17040370888E+02 0.16341729303E+02
 0.15620901931E+02 0.14864119940E+02 0.14115682473E+02 0.13410220946E+02 0.12771208496E+02
 0.12211387891E+02 0.11734498030E+02 0.11337650972E+02 0.11013825130E+02 0.10754101120E+02
 0.10549419837E+02 0.10391769812E+02 0.10274812789E+02 0.10194036118E+02 0.10146579551E+02
 0.10565946072E+02 0.10578744843E+02 0.10617855498E+02 0.10685503494E+02 0.10785626857E+02
 0.10924074373E+02 0.11108638694E+02 0.11348763344E+02 0.11654794627E+02 0.12036702792E+02
 0.12502268500E+02 0.13054823265E+02 0.13690752445E+02 0.14397119919E+02 0.15149940329E+02
 0.15913752667E+02 0.16696264836E+02 0.17382646388E+02 0.17931557873E+02 0.18287283288E+02
 0.18410575387E+02 0.18287283288E+02 0.17931557873E+02 0.17382646388E+02 0.16696264836E+02
 0.15913752667E+02 0.15149940329E+02 0.14397119919E+02 0.13690752445E+02 0.13054823265E+02
 0.12502268500E+02 0.12036702792E+02 0.11654794627E+02 0.11348763344E+02 0.11108638694E+02
 0.10924074373E+02 0.10785626857E+02 0.10685503494E+02 0.10617855498E+02 0.10578744843E+02
 0.11070364425E+02 0.11079057897E+02 0.11106187807E+02 0.11154935527E+02 0.11230677367E+02
 0.11340983609E+02 0.11495430263E+02 0.11705102349E+02 0.11981692068E+02 0.12336135619E+02
 0.12776788907E+02 0.13307220832E+02 0.13923811321E+02 0.14613485419E+02 0.15352081861E+02
 0.16103990470E+02 0.16891201343E+02 0.17577197008E+02 0.18127302379E+02 0.18484303739E+02
 0.18607974476E+02 0.18484303739E+02 0.18127302379E+02 0.17577197008E+02 0.16891201343E+02
 0.16103990470E+02 0.15352081861E+02 0.14613485419E+02 0.13923811321E+02 0.13307220832E+02
 0.12776788907E+02 0.12336135619E+02 0.11981692068E+02 0.11705102349E+02 0.11495430263E+02
 0.11340983609E+02 0.11230677367E+02 0.11154935527E+02 0.11106187807E+02 0.11079057897E+02
 0.11651063381E+02 0.11654110690E+02 0.11664749270E+02 0.11687426981E+02 0.11729398528E+02
 0.11800431883E+02 0.11912305455E+02 0.12078036989E+02 0.12310794524E+02 0.12622457466E+02
 0.13021829106E+02 0.13512561345E+02 0.14090947162E+02 0.14743871593E+02 0.15447374635E+02
 0.16166416738E+02 0.16926374424E+02 0.17588289849E+02 0.18120083196E+02 0.18465522367E+02
 0.18585279010E+02 0.18465522367E+02 0.18120083196E+02 0.17588289849E+02 0.16926374424E+02
 0.16166416738E+02 0.15447374635E+02 0.14743871593E+02 0.14090947162E+02 0.13512561345E+02
 0.13021829106E+02 0.12622457466E+02 0.12310794524E+02 0.12078036989E+02 0.11912305455E+02
 0.11800431883E+02 0.11729398528E+02 0.11687426981E+02 0.11664749270E+02 0.11654110690E+02
 0.12311557887E+02 0.12307203526E+02 0.12296211900E+02 0.12284651767E+02 0.12282160393E+02
 0.12301254229E+02 0.12356410288E+02 0.12462945778E+02 0.12635707817E+02 0.12887568574E+02
 0.13227722567E+02 0.13659818843E+02 0.14180040909E+02 0.14775372752E+02 0.15422444203E+02
 0.16087481855E+02 0.16787408023E+02 0.17401440263E+02 0.17895404537E+02 0.18216703814E+02
 0.18328261393E+02 0.18216703814E+02 0.17895404537E+02 0.17401440263E+02 0.16787408023E+02
 0.16087481855E+02 0.15422444203E+02 0.14775372752E+02 0.14180040909E+02 0.13659818843E+02
 0.13227722567E+02 0.12887568574E+02 0.12635707817E+02 0.12462945778E+02 0.12356410288E+02
 0.12301254229E+02 0.12282160393E+02 0.12284651767E+02 0.12296211900E+02 0.12307203526E+02
 0.13049014291E+02 0.13035424210E+02 0.12997436679E+02 0.12943120480E+02 0.12885035991E+02
 0.12839042493E+02 0.12822859780E+02 0.12854523479E+02 0.12950820885E+02 0.13125730884E+02
 0.13388851996E+02 0.13743811448E+02 0.14186713676E+02 0.14704803207E+02 0.15275662900E+02
 0.15867393655E+02 0.16440241375E+02 0.17026173570E+02 0.17465584423E+02 0.17751567600E+02
 0.17850891203E+02 0.17751567600E+02 0.17465584423E+02 0.17026173570E+02 0.16440241375E+02
 0.15867393655E+02 0.15275662900E+02 0.14704803207E+02 0.14186713676E+02 0.13743811448E+02
 0.13388851996E+02 0.13125730884E+02 0.12950820885E+02 0.12854523479E+02 0.12822859780E+02
 0.12839042493E+02 0.12885035991E+02 0.12943120480E+02 0.12997436679E+02 0.13035424210E+02
 0.13851486637E+02 0.13826923311E+02 0.13756863111E+02 0.13651752057E+02 0.13527611519E+02
 0.13404236316E+02 0.13303136197E+02 0.13245496342E+02 0.13250330468E+02 0.13332876989E+02
 0.13503199675E+02 0.13764933042E+02 0.14114164586E+02 0.14538555700E+02 0.15016941099E+02
 0.15519763236E+02 0.16010719953E+02 0.16449855323E+02 0.16865984856E+02 0.17109000678E+02
 0.17193419613E+02 0.17109000678E+02 0.16865984856E+02 0.16449855323E+02 0.16010719953E+02
 0.15519763236E+02 0.15016941099E+02 0.14538555700E+02 0.14114164586E+02 0.13764933042E+02
 0.13503199675E+02 0.13332876989E+02 0.13250330468E+02 0.13245496342E+02 0.13303136197E+02
 0.13404236316E+02 0.13527611519E+02 0.13651752057E+02 0.13756863111E+02 0.13826923311E+02
 0.14696073353E+02 0.14659091124E+02 0.14552744394E+02 0.14390197757E+02 0.14191418763E+02
 0.13980670553E+02 0.13783743884E+02 0.13625362450E+02 0.13527030946E+02 0.13505399823E+02
 0.13571074549E+02 0.13727744106E+02 0.13971543588E+02 0.14290671806E+02 0.14665417264E+02
 0.15068855622E+02 0.15468506923E+02 0.15829123240E+02 0.16116501478E+02 0.16301846656E+02
 0.16365889342E+02 0.16301846656E+02 0.16116501478E+02 0.15829123240E+02 0.15468506923E+02
 0.15068855622E+02 0.14665417264E+02 0.14290671806E+02 0.13971543588E+02 0.13727744106E+02
 0.13571074549E+02 0.13505399823E+02 0.13527030946E+02 0.13625362450E+02 0.13783743884E+02
 0.13980670553E+02 0.14191418763E+02 0.14390197757E+02 0.14552744394E+02 0.14659091124E+02
 0.15548679606E+02 0.15498318937E+02 0.15352902732E+02 0.15128578240E+02 0.14849631254E+02
 0.14545196404E+02 0.14245710559E+02 0.13979719136E+02 0.13771406401E+02 0.13638942199E+02
 0.13593528334E+02 0.13638942199E+02 0.13771406401E+02 0.13979719136E+02 0.14245710559E+02
 0.14545196404E+02 0.14849631254E+02 0.15128578240E+02 0.15352902732E+02 0.15498318937E+02
 0.15548679606E+02 0.15498318937E+02 0.15352902732E+02 0.15128578240E+02 0.14849631254E+02
 0.14545196404E+02 0.14245710559E+02 0.13979719136E+02 0.13771406401E+02 0.13638942199E+02
 0.13593528334E+02 0.13638942199E+02 0.13771406401E+02 0.13979719136E+02 0.14245710559E+02
 0.14545196404E+02 0.14849631254E+02 0.15128578240E+02 0.15352902732E+02 0.15498318937E+02
 0.16365889342E+02 0.16301846656E+02 0.16116501478E+02 0.15829123240E+02 0.15468506923E+02
 0.15068855622E+02 0.14665417264E+02 0.14290671806E+02 0.13971543588E+02 0.13727744106E+02
 0.13571074549E+02 0.13505399823E+02 0.13527030946E+02 0.13625362450E+02 0.13783743884E+02
 0.13980670553E+02 0.14191418763E+02 0.14390197757E+02 0.14552744394E+02 0.14659091124E+02
 0.14696073353E+02 0.14659091124E+02 0.14552744394E+02 0.14390197757E+02 0.14191418763E+02
 0.13980670553E+02 0.13783743884E+02 0.13625362450E+02 0.13527030946E+02 0.13505399823E+02
 0.13571074549E+02 0.13727744106E+02 0.13971543588E+02 0.14290671806E+02 0.14665417264E+02
 0.15068855622E+02 0.15468506923E+02 0.15829123240E+02 0.16116501478E+02 0.16301846656E+02
 0.17193419613E+02 0.17109000678E+02 0.16865984856E+02 0.16449855323E+02 0.16010719953E+02
 0.15519763236E+02 0.15016941099E+02 0.14538555700E+02 0.14114164586E+02 0.13764933042E+02
 0.13503199675E+02 0.13332876989E+02 0.13250330468E+02 0.13245496342E+02 0.13303136197E+02
 0.13404236316E+02 0.13527611519E+02 0.13651752057E+02 0.13756863111E+02 0.13826923311E+02
 0.13851486637E+02 0.13826923311E+02 0.13756863111E+02 0.13651752057E+02 0.13527611519E+02
 0.13404236316E+02 0.13303136197E+02 0.13245496342E+02 0.13250330468E+02 0.13332876989E+02
 0.13503199675E+02 0.13764933042E+02 0.14114164586E+02 0.14538555700E+02 0.15016941099E+02
 0.15519763236E+02 0.16010719953E+02 0.16449855323E+02 0.16865984856E+02 0.17109000678E+02
 0.17850891203E+02 0.17751567600E+02 0.17465584423E+02 0.17026173570E+02 0.16440241375E+02
 0.15867393655E+02 0.15275662900E+02 0.14704803207E+02 0.14186713676E+02 0.13743811448E+02
 0.13388851996E+02 0.13125730884E+02 0.12950820885E+02 0.12854523479E+02 0.12822859780E+02
 0.12839042493E+02 0.12885035991E+02 0.12943120480E+02 0.12997436679E+02 0.13035424210E+02
 0.13049014291E+02 0.13035424210E+02 0.12997436679E+02 0.12943120480E+02 0.12885035991E+02
 0.12839042493E+02 0.12822859780E+02 0.12854523479E+02 0.12950820885E+02 0.13125730884E+02
 0.13388851996E+02 0.13743811448E+02 0.14186713676E+02 0.14704803207E+02 0.15275662900E+02
 0.15867393655E+02 0.16440241375E+02 0.17026173570E+02 0.17465584423E+02 0.17751567600E+02
 0.18328261393E+02 0.18216703814E+02 0.17895404537E+02 0.17401440263E+02 0.16787408023E+02
 0.16087481855E+02 0.15422444203E+02 0.14775372752E+02 0.14180040909E+02 0.13659818843E+02
 0.13227722567E+02 0.12887568574E+02 0.12635707817E+02 0.12462945778E+02 0.12356410288E+02
 0.12301254229E+02 0.12282160393E+02 0.12284651767E+02 0.12296211900E+02 0.12307203526E+02
 0.12311557887E+02 0.12307203526E+02 0.12296211900E+02 0.12284651767E+02 0.12282160393E+02
 0.12301254229E+02 0.12356410288E+02 0.12462945778E+02 0.12635707817E+02 0.12887568574E+02
 0.13227722567E+02 0.13659818843E+02 0.14180040909E+02 0.14775372752E+02 0.15422444203E+02
 0.16087481855E+02 0.16787408023E+02 0.17401440263E+02 0.17895404537E+02 0.18216703814E+02
 0.18585279010E+02 0.18465522367E+02 0.18120083196E+02 0.17588289849E+02 0.16926374424E+02
 0.16166416738E+02 0.15447374635E+02 0.14743871593E+02 0.14090947162E+02 0.13512561345E+02
 0.13021829106E+02 0.12622457466E+02 0.12310794524E+02 0.12078036989E+02 0.11912305455E+02
 0.11800431883E+02 0.11729398528E+02 0.11687426981E+02 0.11664749270E+02 0.11654110690E+02
 0.11651063381E+02 0.11654110690E+02 0.11664749270E+02 0.11687426981E+02 0.11729398528E+02
 0.11800431883E+02 0.11912305455E+02 0.12078036989E+02 0.12310794524E+02 0.12622457466E+02
 0.13021829106E+02 0.13512561345E+02 0.14090947162E+02 0.14743871593E+02 0.15447374635E+02
 0.16166416738E+02 0.16926374424E+02 0.17588289849E+02 0.18120083196E+02 0.18465522367E+02
 0.18607974476E+02 0.18484303739E+02 0.18127302379E+02 0.17577197008E+02 0.16891201343E+02
 0.16103990470E+02 0.15352081861E+02 0.14613485419E+02 0.13923811321E+02 0.13307220832E+02
 0.12776788907E+02 0.12336135619E+02 0.11981692068E+02 0.11705102349E+02 0.11495430263E+02
 0.11340983609E+02 0.11230677367E+02 0.11154935527E+02 0.11106187807E+02 0.11079057897E+02
 0.11070364425E+02 0.11079057897E+02 0.11106187807E+02 0.11154935527E+02 0.11230677367E+02
 0.11340983609E+02 0.11495430263E+02 0.11705102349E+02 0.11981692068E+02 0.12336135619E+02
 0.12776788907E+02 0.13307220832E+02 0.13923811321E+02 0.14613485419E+02 0.15352081861E+02
 0.16103990470E+02 0.16891201343E+02 0.17577197008E+02 0.18127302379E+02 0.18484303739E+02
 0.18410575387E+02 0.18287283288E+02 0.17931557873E+02 0.17382646388E+02 0.16696264836E+02
 0.15913752667E+02 0.15149940329E+02 0.14397119919E+02 0.13690752445E+02 0.13054823265E+02
 0.12502268500E+02 0.12036702792E+02 0.11654794627E+02 0.11348763344E+02 0.11108638694E+02
 0.10924074373E+02 0.10785626857E+02 0.10685503494E+02 0.10617855498E+02 0.10578744843E+02
 0.10565946072E+02 0.10578744843E+02 0.10617855498E+02 0.10685503494E+02 0.10785626857E+02
 0.10924074373E+02 0.11108638694E+02 0.11348763344E+02 0.11654794627E+02 0.12036702792E+02
 0.12502268500E+02 0.13054823265E+02 0.13690752445E+02 0.14397119919E+02 0.15149940329E+02
 0.15913752667E+02 0.16696264836E+02 0.17382646388E+02 0.17931557873E+02 0.18287283288E+02
 0.18033399378E+02 0.17914572824E+02 0.17571326743E+02 0.17040370888E+02 0.16341729303E+02
 0.15620901931E+02 0.14864119940E+02 0.14115682473E+02 0.13410220946E+02 0.12771208496E+02
 0.12211387891E+02 0.11734498030E+02 0.11337650972E+02 0.11013825130E+02 0.10754101120E+02
 0.10549419837E+02 0.10391769812E+02 0.10274812789E+02 0.10194036118E+02 0.10146579551E+02
 0.10130917879E+02 0.10146579551E+02 0.10194036118E+02 0.10274812789E+02 0.10391769812E+02
 0.10549419837E+02 0.10754101120E+02 0.11013825130E+02 0.11337650972E+02 0.11734498030E+02
 0.12211387891E+02 0.12771208496E+02 0.13410220946E+02 0.14115682473E+02 0.14864119940E+02
 0.15620901931E+02 0.16341729303E+02 0.17040370888E+02 0.17571326743E+02 0.17914572824E+02
 0.17535015889E+02 0.17423438892E+02 0.17048090650E+02 0.16568106571E+02 0.15955637625E+02
 0.15258364874E+02 0.14524051424E+02 0.13794989823E+02 0.13104399131E+02 0.12474966291E+02
 0.11919223611E+02 0.11441187566E+02 0.11038639685E+02 0.10705525563E+02 0.10434097747E+02
 0.10216579010E+02 0.10046252893E+02 0.99179940899E+01 0.98283333263E+01 0.97752106192E+01
 0.97576031707E+01 0.97752106192E+01 0.98283333263E+01 0.99179940899E+01 0.10046252893E+02
 0.10216579010E+02 0.10434097747E+02 0.10705525563E+02 0.11038639685E+02 0.11441187566E+02
 0.11919223611E+02 0.12474966291E+02 0.13104399131E+02 0.13794989823E+02 0.14524051424E+02
 0.15258364874E+02 0.15955637625E+02 0.16568106571E+02 0.17048090650E+02 0.17423438892E+02
 0.16948856233E+02 0.16849323110E+02 0.16559767491E+02 0.16105762993E+02 0.15525151688E+02
 0.14862163164E+02 0.14161290819E+02 0.13462156488E+02 0.12796131662E+02 0.12184921403E+02
 0.11640855517E+02 0.11168373386E+02 0.10766130470E+02 0.10429229560E+02 0.10151214510E+02
 0.99256076839E+01 0.97469004432E+01 0.96110106257E+01 0.95153012342E+01 0.94583107282E+01
 0.94393743825E+01 0.94583107282E+01 0.95153012342E+01 0.96110106257E+01 0.97469004432E+01
 0.99256076839E+01 0.10151214510E+02 0.10429229560E+02 0.10766130470E+02 0.11168373386E+02
 0.11640855517E+02 0.12184921403E+02 0.12796131662E+02 0.13462156488E+02 0.14161290819E+02
 0.14862163164E+02 0.15525151688E+02 0.16105762993E+02 0.16559767491E+02 0.16849323110E+02
 0.16419612621E+02 0.16326959049E+02 0.16057172826E+02 0.15633398756E+02 0.15089972761E+02
 0.14467185106E+02 0.13805791406E+02 0.13142362877E+02 0.12506175151E+02 0.11917846848E+02
 0.11389526467E+02 0.10926182967E+02 0.10527486967E+02 0.10189825035E+02 0.99081068684E+01
 0.96771573716E+01 0.94926068598E+01 0.93512924836E+01 0.92512596899E+01 0.91915040211E+01
 0.91716184151E+01 0.91915040211E+01 0.92512596899E+01 0.93512924836E+01 0.94926068598E+01
 0.96771573716E+01 0.99081068684E+01 0.10189825035E+02 0.10527486967E+02 0.10926182967E+02
 0.11389526467E+02 0.11917846848E+02 0.12506175151E+02 0.13142362877E+02 0.13805791406E+02
 0.14467185106E+02 0.15089972761E+02 0.15633398756E+02 0.16057172826E+02 0.16326959049E+02
 0.15919182129E+02 0.15833550471E+02 0.15583951600E+02 0.15191073577E+02 0.14685699318E+02
 0.14104117560E+02 0.13483278150E+02 0.12856642378E+02 0.12251354097E+02 0.11686941742E+02
 0.11175399365E+02 0.10722270702E+02 0.10328286008E+02 0.99911398243E+01 0.97070975183E+01
 0.94722367731E+01 0.92832418022E+01 0.91377608676E+01 0.90344078818E+01 0.89725351342E+01
 0.89519244517E+01 0.89725351342E+01 0.90344078818E+01 0.91377608676E+01 0.92832418022E+01
 0.94722367731E+01 0.97070975183E+01 0.99911398243E+01 0.10328286008E+02 0.10722270702E+02
 0.11175399365E+02 0.11686941742E+02 0.12251354097E+02 0.12856642378E+02 0.13483278150E+02
 0.14104117560E+02 0.14685699318E+02 0.15191073577E+02 0.15583951600E+02 0.15833550471E+02
 0.15487621726E+02 0.15408384967E+02 0.15177174910E+02 0.14812451747E+02 0.14341771186E+02
 0.13797779444E+02 0.13213953853E+02 0.12620912853E+02 0.12043851874E+02 0.11501309915E+02
 0.11005156213E+02 0.10561482206E+02 0.10172007403E+02 0.98356324556E+01 0.95498560886E+01
 0.93118768649E+01 0.91193017607E+01 0.89704690507E+01 0.88644578929E+01 0.88008984115E+01
 0.87797117413E+01 0.88008984115E+01 0.88644578929E+01 0.89704690507E+01 0.91193017607E+01
 0.93118768649E+01 0.95498560886E+01 0.98356324556E+01 0.10172007403E+02 0.10561482206E+02
 0.11005156213E+02 0.11501309915E+02 0.12043851874E+02 0.12620912853E+02 0.13213953853E+02
 0.13797779444E+02 0.14341771186E+02 0.14812451747E+02 0.15177174910E+02 0.15408384967E+02
 0.15156653522E+02 0.15082514013E+02 0.14865962993E+02 0.14523688358E+02 0.14080675316E+02
 0.13566663790E+02 0.13012355071E+02 0.12446091013E+02 0.11891505765E+02 0.11366348179E+02
 0.10882394974E+02 0.10446187860E+02 0.10060251114E+02 0.97244607391E+01 0.94373065322E+01
 0.91968806366E+01 0.90015178718E+01 0.88500925519E+01 0.87420372520E+01 0.86771865045E+01
 0.86555599895E+01 0.86771865045E+01 0.87420372520E+01 0.88500925519E+01 0.90015178718E+01
 0.91968806366E+01 0.94373065322E+01 0.97244607391E+01 0.10060251114E+02 0.10446187860E+02
 0.10882394974E+02 0.11366348179E+02 0.11891505765E+02 0.12446091013E+02 0.13012355071E+02
 0.13566663790E+02 0.14080675316E+02 0.14523688358E+02 0.14865962993E+02 0.15082514013E+02
 0.14949007996E+02 0.14878147496E+02 0.14671026999E+02 0.14343195250E+02 0.13917983870E+02
 0.13423261014E+02 0.12887937718E+02 0.12338885842E+02 0.11798730749E+02 0.11284711531E+02
 0.10808547704E+02 0.10377076166E+02 0.99933460948E+01 0.96578679854E+01 0.93697746564E+01
 0.91277361430E+01 0.89305558510E+01 0.87774507995E+01 0.86680769807E+01 0.86023958898E+01
 0.85804869910E+01 0.86023958898E+01 0.86680769807E+01 0.87774507995E+01 0.89305558510E+01
 0.91277361430E+01 0.93697746564E+01 0.96578679854E+01 0.99933460948E+01 0.10377076166E+02
 0.10808547704E+02 0.11284711531E+02 0.11798730749E+02 0.12338885842E+02 0.12887937718E+02
 0.13423261014E+02 0.13917983870E+02 0.14343195250E+02 0.14671026999E+02 0.14878147496E+02
 0.14878285910E+02 0.14808556113E+02 0.14604687620E+02 0.14281836472E+02 0.13862764004E+02
 0.13374692473E+02 0.12845914731E+02 0.12302794717E+02 0.11767609104E+02 0.11257420879E+02
 0.10783930167E+02 0.10354076566E+02 0.99710915050E+01 0.96357055636E+01 0.93472744137E+01
 0.91046681628E+01 0.89068522021E+01 0.87531617195E+01 0.86433293997E+01 0.85773599938E+01
 0.85553531192E+01 0.85773599938E+01 0.86433293997E+01 0.87531617195E+01 0.89068522021E+01
 0.91046681628E+01 0.93472744137E+01 0.96357055636E+01 0.99710915050E+01 0.10354076566E+02
 0.10783930167E+02 0.11257420879E+02 0.11767609104E+02 0.12302794717E+02 0.12845914731E+02
 0.13374692473E+02 0.13862764004E+02 0.14281836472E+02 0.14604687620E+02 0.14808556113E+02
 0.14949007996E+02 0.14878147496E+02 0.14671026999E+02 0.14343195250E+02 0.13917983870E+02
 0.13423261014E+02 0.12887937718E+02 0.12338885842E+02 0.11798730749E+02 0.11284711531E+02
 0.10808547704E+02 0.10377076166E+02 0.99933460948E+01 0.96578679854E+01 0.93697746564E+01
 0.91277361430E+01 0.89305558510E+01 0.87774507995E+01 0.86680769807E+01 0.86023958898E+01
 0.85804869910E+01 0.86023958898E+01 0.86680769807E+01 0.87774507995E+01 0.89305558510E+01
 0.91277361430E+01 0.93697746564E+01 0.96578679854E+01 0.99933460948E+01 0.10377076166E+02
 0.10808547704E+02 0.11284711531E+02 0.11798730749E+02 0.12338885842E+02 0.12887937718E+02
 0.13423261014E+02 0.13917983870E+02 0.14343195250E+02 0.14671026999E+02 0.14878147496E+02
 0.15156653522E+02 0.15082514013E+02 0.14865962993E+02 0.14523688358E+02 0.14080675316E+02
 0.13566663790E+02 0.13012355071E+02 0.12446091013E+02 0.11891505765E+02 0.11366348179E+02
 0.10882394974E+02 0.10446187860E+02 0.10060251114E+02 0.97244607391E+01 0.94373065322E+01
 0.91968806366E+01 0.90015178718E+01 0.88500925519E+01 0.87420372520E+01 0.86771865045E+01
 0.86555599895E+01 0.86771865045E+01 0.87420372520E+01 0.88500925519E+01 0.90015178718E+01
 0.91968806366E+01 0.94373065322E+01 0.97244607391E+01 0.10060251114E+02 0.10446187860E+02
 0.10882394974E+02 0.11366348179E+02 0.11891505765E+02 0.12446091013E+02 0.13012355071E+02
 0.13566663790E+02 0.14080675316E+02 0.14523688358E+02 0.14865962993E+02 0.15082514013E+02
 0.15487621726E+02 0.15408384967E+02 0.15177174910E+02 0.14812451747E+02 0.14341771186E+02
 0.13797779444E+02 0.13213953853E+02 0.12620912853E+02 0.12043851874E+02 0.11501309915E+02
 0.11005156213E+02 0.10561482206E+02 0.10172007403E+02 0.98356324556E+01 0.95498560886E+01
 0.93118768649E+01 0.91193017607E+01 0.89704690507E+01 0.88644578929E+01 0.88008984115E+01
 0.87797117413E+01 0.88008984115E+01 0.88644578929E+01 0.89704690507E+01 0.91193017607E+01
 0.93118768649E+01 0.95498560886E+01 0.98356324556E+01 0.10172007403E+02 0.10561482206E+02
 0.11005156213E+02 0.11501309915E+02 0.12043851874E+02 0.12620912853E+02 0.13213953853E+02
 0.13797779444E+02 0.14341771186E+02 0.14812451747E+02 0.15177174910E+02 0.15408384967E+02
 0.15919182129E+02 0.15833550471E+02 0.15583951600E+02 0.15191073577E+02 0.14685699318E+02
 0.14104117560E+02 0.13483278150E+02 0.12856642378E+02 0.12251354097E+02 0.11686941742E+02
 0.11175399365E+02 0.10722270702E+02 0.10328286008E+02 0.99911398243E+01 0.97070975183E+01
 0.94722367731E+01 0.92832418022E+01 0.91377608676E+01 0.90344078818E+01 0.89725351342E+01
 0.89519244517E+01 0.89725351342E+01 0.90344078818E+01 0.91377608676E+01 0.92832418022E+01
 0.94722367731E+01 0.97070975183E+01 0.99911398243E+01 0.10328286008E+02 0.10722270702E+02
 0.11175399365E+02 0.11686941742E+02 0.12251354097E+02 0.12856642378E+02 0.13483278150E+02
 0.14104117560E+02 0.14685699318E+02 0.15191073577E+02 0.15583951600E+02 0.15833550471E+02
 0.16419612621E+02 0.16326959049E+02 0.16057172826E+02 0.15633398756E+02 0.15089972761E+02
 0.14467185106E+02 0.13805791406E+02 0.13142362877E+02 0.12506175151E+02 0.11917846848E+02
 0.11389526467E+02 0.10926182967E+02 0.10527486967E+02 0.10189825035E+02 0.99081068684E+01
 0.96771573716E+01 0.94926068598E+01 0.93512924836E+01 0.92512596899E+01 0.91915040211E+01
 0.91716184151E+01 0.91915040211E+01 0.92512596899E+01 0.93512924836E+01 0.94926068598E+01
 0.96771573716E+01 0.99081068684E+01 0.10189825035E+02 0.10527486967E+02 0.10926182967E+02
 0.11389526467E+02 0.11917846848E+02 0.12506175151E+02 0.13142362877E+02 0.13805791406E+02
 0.14467185106E+02 0.15089972761E+02 0.15633398756E+02 0.16057172826E+02 0.16326959049E+02
 0.16948856233E+02 0.16849323110E+02 0.16559767491E+02 0.16105762993E+02 0.15525151688E+02
 0.14862163164E+02 0.14161290819E+02 0.13462156488E+02 0.12796131662E+02 0.12184921403E+02
 0.11640855517E+02 0.11168373386E+02 0.10766130470E+02 0.10429229560E+02 0.10151214510E+02
 0.99256076839E+01 0.97469004432E+01 0.96110106257E+01 0.95153012342E+01 0.94583107282E+01
 0.94393743825E+01 0.94583107282E+01 0.95153012342E+01 0.96110106257E+01 0.97469004432E+01
 0.99256076839E+01 0.10151214510E+02 0.10429229560E+02 0.10766130470E+02 0.11168373386E+02
 0.11640855517E+02 0.12184921403E+02 0.12796131662E+02 0.13462156488E+02 0.14161290819E+02
 0.14862163164E+02 0.15525151688E+02 0.16105762993E+02 0.16559767491E+02 0.16849323110E+02
 0.17535015889E+02 0.17423438892E+02 0.17048090650E+02 0.16568106571E+02 0.15955637625E+02
 0.15258364874E+02 0.14524051424E+02 0.13794989823E+02 0.13104399131E+02 0.12474966291E+02
 0.11919223611E+02 0.11441187566E+02 0.11038639685E+02 0.10705525563E+02 0.10434097747E+02
 0.10216579010E+02 0.10046252893E+02 0.99179940899E+01 0.98283333263E+01 0.97752106192E+01
 0.97576031707E+01 0.97752106192E+01 0.98283333263E+01 0.99179940899E+01 0.10046252893E+02
 0.10216579010E+02 0.10434097747E+02 0.10705525563E+02 0.11038639685E+02 0.11441187566E+02
 0.11919223611E+02 0.12474966291E+02 0.13104399131E+02 0.13794989823E+02 0.14524051424E+02
 0.15258364874E+02 0.15955637625E+02 0.16568106571E+02 0.17048090650E+02 0.17423438892E+02
 0.18033399378E+02 0.17914572824E+02 0.17571326743E+02 0.17040370888E+02 0.16341729303E+02
 0.15620901931E+02 0.14864119940E+02 0.14115682473E+02 0.13410220946E+02 0.12771208496E+02
 0.12211387891E+02 0.11734498030E+02 0.11337650972E+02 0.11013825130E+02 0.10754101120E+02
 0.10549419837E+02 0.10391769812E+02 0.10274812789E+02 0.10194036118E+02 0.10146579551E+02
 0.10130917879E+02 0.10146579551E+02 0.10194036118E+02 0.10274812789E+02 0.10391769812E+02