 vasp.5.4.4.18Apr17-6-g9f103f2a35 (build Apr 28 2018 00:24:27) complex          
  
 executed on             LinuxIFC date 2021.03.25  02:00:32
 running on    8 total cores
 distrk:  each k-point on    8 cores,    1 groups
 distr:  one band on NCORES_PER_BAND=   8 cores,    1 groups


--------------------------------------------------------------------------------------------------------


 INCAR:
 POTCAR:    PAW_PBE Mn 06Sep2000                  
 POTCAR:    PAW_PBE Bi 08Apr2002                  

 ----------------------------------------------------------------------------- 
|                                                                             |
|           W    W    AA    RRRRR   N    N  II  N    N   GGGG   !!!           |
|           W    W   A  A   R    R  NN   N  II  NN   N  G    G  !!!           |
|           W    W  A    A  R    R  N N  N  II  N N  N  G       !!!           |
|           W WW W  AAAAAA  RRRRR   N  N N  II  N  N N  G  GGG   !            |
|           WW  WW  A    A  R   R   N   NN  II  N   NN  G    G                |
|           W    W  A    A  R    R  N    N  II  N    N   GGGG   !!!           |
|                                                                             |
|      For optimal performance we recommend to set                            |
|        NCORE= 4 - approx SQRT( number of cores)                             |
|      NCORE specifies how many cores store one orbital (NPAR=cpu/NCORE).     |
|      This setting can  greatly improve the performance of VASP for DFT.     |
|      The default,   NCORE=1            might be grossly inefficient         |
|      on modern multi-core architectures or massively parallel machines.     |
|      Do your own testing !!!!                                               |
|      Unfortunately you need to use the default for GW and RPA calculations. |
|      (for HF NCORE is supported but not extensively tested yet)             |
|                                                                             |
 ----------------------------------------------------------------------------- 

 POTCAR:    PAW_PBE Mn 06Sep2000                  
   SHA256 =  791c87526310ff945dc83749a51ee60ee299d345ff72743aeb14609b9ed68bfc Mn
   COPYR  = (c) Copyright 06Sep2000 Georg Kresse                                
   COPYR  = This file is part of the software VASP. Any use, copying, and all ot
   COPYR  = If you do not have a valid VASP license, you may not use, copy or di
   VRHFIN =Mn: d6 s1                                                            
   LEXCH  = PE                                                                  
   EATOM  =   416.7541 eV,   30.6306 Ry                                         
                                                                                
   TITEL  = PAW_PBE Mn 06Sep2000                                                
   LULTRA =        F    use ultrasoft PP ?                                      
   IUNSCR =        1    unscreen: 0-lin 1-nonlin 2-no                           
   RPACOR =    2.000    partial core radius                                     
   POMASS =   54.938; ZVAL   =    7.000    mass and valenz                      
   RCORE  =    2.300    outmost cutoff radius                                   
   RWIGS  =    2.500; RWIGS  =    1.323    wigner-seitz radius (au A)           
   ENMAX  =  269.864; ENMIN  =  202.398 eV                                      
   RCLOC  =    1.725    cutoff for local pot                                    
   LCOR   =        T    correct aug charges                                     
   LPAW   =        T    paw PP                                                  
   EAUG   =  500.711                                                            
   DEXC   =    0.000                                                            
   RMAX   =    2.343    core radius for proj-oper                               
   RAUG   =    1.300    factor for augmentation sphere                          
   RDEP   =    2.338    radius for radial grids                                 
   RDEPT  =    1.911    core radius for aug-charge                              
                                                                                
   Atomic configuration                                                         
    9 entries                                                                   
     n  l   j            E        occ.                                          
     1  0  0.50     -6424.8288   2.0000                                         
     2  0  0.50      -739.1154   2.0000                                         
     2  1  1.50      -625.3949   6.0000                                         
     3  0  0.50       -81.6100   2.0000                                         
     3  1  1.50       -50.4667   6.0000                                         
     3  2  2.50        -3.3745   6.0000                                         
     4  0  0.50        -4.1331   1.0000                                         
     4  1  0.50        -4.0817   0.0000                                         
     4  3  2.50        -1.3606   0.0000                                         
   Description                                                                  
     l       E           TYP  RCUT    TYP  RCUT                                 
     2     -3.3744664     23  2.300                                             
     2     -4.7350490     23  2.300                                             
     0     -4.1331408     23  2.300                                             
     0      7.6656614     23  2.300                                             
     1     -2.7211652     23  2.300                                             
     1     20.4087390     23  2.300                                             
  local pseudopotential read in
  partial core-charges read in
  partial kinetic energy density read in
  atomic valenz-charges read in
  non local Contribution for L=           2  read in
    real space projection operators read in
  non local Contribution for L=           2  read in
    real space projection operators read in
  non local Contribution for L=           0  read in
    real space projection operators read in
  non local Contribution for L=           0  read in
    real space projection operators read in
  non local Contribution for L=           1  read in
    real space projection operators read in
  non local Contribution for L=           1  read in
    real space projection operators read in
    PAW grid and wavefunctions read in
 
   number of l-projection  operators is LMAX  =           6
   number of lm-projection operators is LMMAX =          18
 
 POTCAR:    PAW_PBE Bi 08Apr2002                  
   SHA256 =  d6b6753ed5db3f0e277fb15e6dbb6699c4bc829850a481068e9e7236faeca489 Bi
   COPYR  = (c) Copyright 08Apr2002 Georg Kresse                                
   COPYR  = This file is part of the software VASP. Any use, copying, and all ot
   COPYR  = If you do not have a valid VASP license, you may not use, copy or di
   VRHFIN =Bi:                                                                  
   LEXCH  = PE                                                                  
   EATOM  =   150.8133 eV,   11.0845 Ry                                         
                                                                                
   TITEL  = PAW_PBE Bi 08Apr2002                                                
   LULTRA =        F    use ultrasoft PP ?                                      
   IUNSCR =        1    unscreen: 0-lin 1-nonlin 2-no                           
   RPACOR =    2.200    partial core radius                                     
   POMASS =  208.980; ZVAL   =    5.000    mass and valenz                      
   RCORE  =    3.000    outmost cutoff radius                                   
   RWIGS  =    3.090; RWIGS  =    1.635    wigner-seitz radius (au A)           
   ENMAX  =  105.037; ENMIN  =   78.777 eV                                      
   ICORE  =        3    local potential                                         
   LCOR   =        T    correct aug charges                                     
   LPAW   =        T    paw PP                                                  
   EAUG   =  265.427                                                            
   DEXC   =    0.000                                                            
   RMAX   =    3.067    core radius for proj-oper                               
   RAUG   =    1.300    factor for augmentation sphere                          
   RDEP   =    3.012    radius for radial grids                                 
   RDEPT  =    2.604    core radius for aug-charge                              
                                                                                
   Atomic configuration                                                         
   17 entries                                                                   
     n  l   j            E        occ.                                          
     1  0  0.50    -90639.6582   2.0000                                         
     2  0  0.50    -16282.4667   2.0000                                         
     2  1  1.50    -13922.8287   6.0000                                         
     3  0  0.50     -3930.4763   2.0000                                         
     3  1  1.50     -3256.7013   6.0000                                         
     3  2  2.50     -2581.6169  10.0000                                         
     4  0  0.50      -902.2614   2.0000                                         
     4  1  1.50      -681.5915   6.0000                                         
     4  2  2.50      -429.8249  10.0000                                         
     4  3  3.50      -152.6004  14.0000                                         
     5  0  0.50      -157.7156   2.0000                                         
     5  1  1.50       -95.8054   6.0000                                         
     5  2  2.50       -27.0806  10.0000                                         
     6  0  0.50       -14.4732   2.0000                                         
     6  1  1.50        -4.5702   3.0000                                         
     6  2  2.50        -2.7212   0.0000                                         
     5  3  2.50        -2.7212   0.0000                                         
   Description                                                                  
     l       E           TYP  RCUT    TYP  RCUT                                 
     0    -14.4732299     23  3.000                                             
     0    -12.2452434     23  3.000                                             
     1     -4.5701666     23  3.000                                             
     1    -13.6058260     23  3.000                                             
     2     -2.7211652     23  3.000                                             
     3     -1.3605826      7  3.000                                             
  local pseudopotential read in
  partial core-charges read in
  partial kinetic energy density read in
  kinetic energy density of atom read in
  atomic valenz-charges read in
  non local Contribution for L=           0  read in
    real space projection operators read in
  non local Contribution for L=           0  read in
    real space projection operators read in
  non local Contribution for L=           1  read in
    real space projection operators read in
  non local Contribution for L=           1  read in
    real space projection operators read in
  non local Contribution for L=           2  read in
    real space projection operators read in
    PAW grid and wavefunctions read in
 
   number of l-projection  operators is LMAX  =           5
   number of lm-projection operators is LMMAX =          13
 
  PAW_PBE Mn 06Sep2000                  :
 energy of atom  1       EATOM= -416.7541
 kinetic energy error for atom=    0.0024 (will be added to EATOM!!)
  PAW_PBE Bi 08Apr2002                  :
 energy of atom  2       EATOM= -150.8133
 kinetic energy error for atom=    0.0001 (will be added to EATOM!!)
 
 
 POSCAR: Mn1 Bi1 str #: 6                        
  positions in direct lattice
  No initial velocities read in
 exchange correlation table for  LEXCH =        8
   RHO(1)=    0.500       N(1)  =     2000
   RHO(2)=  100.500       N(2)  =     4000
 


--------------------------------------------------------------------------------------------------------


 ion  position               nearest neighbor table
   1  0.500  0.375  0.000-   7 2.76   7 2.76   6 2.76   6 2.76
   2  0.000  0.625  0.500-   8 2.76   8 2.76   7 2.76   7 2.76
   3  0.500  0.875  0.000-   5 2.76   5 2.76   8 2.76   8 2.76
   4  0.000  0.125  0.500-   6 2.76   6 2.76   5 2.76   5 2.76
   5  0.000  0.000  0.000-   3 2.76   3 2.76   4 2.76   4 2.76
   6  0.500  0.250  0.500-   4 2.76   4 2.76   1 2.76   1 2.76
   7  0.000  0.500  0.000-   1 2.76   1 2.76   2 2.76   2 2.76
   8  0.500  0.750  0.500-   2 2.76   2 2.76   3 2.76   3 2.76
 

IMPORTANT INFORMATION: All symmetrisations will be switched off!
NOSYMM: (Re-)initialisation of all symmetry stuff for point group C_1.

 
 

Automatic generation of k-mesh.
 generate k-points for:    3    1    3
Space group operators:
 irot       det(A)        alpha          n_x          n_y          n_z        tau_x        tau_y        tau_z
    1     1.000000     0.000000     1.000000     0.000000     0.000000     0.000000     0.000000     0.000000
 
 Subroutine IBZKPT returns following result:
 ===========================================
 
 Found      5 irreducible k-points:
 
 Following reciprocal coordinates:
            Coordinates               Weight
  0.000000  0.000000  0.000000      1.000000
  0.333333 -0.000000  0.000000      2.000000
  0.000000 -0.000000  0.333333      2.000000
  0.333333 -0.000000  0.333333      2.000000
 -0.333333  0.000000  0.333333      2.000000
 
 Following cartesian coordinates:
            Coordinates               Weight
  0.000000  0.000000  0.000000      1.000000
  0.074065  0.000000  0.000000      2.000000
  0.000000 -0.042761  0.060474      2.000000
  0.074065 -0.042761  0.060474      2.000000
 -0.074065 -0.042761  0.060474      2.000000
 


--------------------------------------------------------------------------------------------------------




 Dimension of arrays:
   k-points           NKPTS =      5   k-points in BZ     NKDIM =      5   number of bands    NBANDS=     29
   number of dos      NEDOS =    301   number of ions     NIONS =      8
   non local maximal  LDIM  =      6   non local SUM 2l+1 LMDIM =     18
   total plane-waves  NPLWV = 124416
   max r-space proj   IRMAX =      1   max aug-charges    IRDMAX=  46160
   dimension x,y,z NGX =    36 NGY =   96 NGZ =   36
   dimension x,y,z NGXF=    72 NGYF=  192 NGZF=   72
   support grid    NGXF=    72 NGYF=  192 NGZF=   72
   ions per type =               4   4
   NGX,Y,Z   is equivalent  to a cutoff of  13.30, 12.54, 13.30 a.u.
   NGXF,Y,Z  is equivalent  to a cutoff of  26.60, 25.07, 26.60 a.u.

 SYSTEM =  BiMn                                    
 POSCAR =  Mn1 Bi1 str #: 6                        

 Startparameter for this run:
   NWRITE =      2    write-flag & timer
   PREC   = accura    normal or accurate (medium, high low for compatibility)
   ISTART =      0    job   : 0-new  1-cont  2-samecut
   ICHARG =      2    charge: 1-file 2-atom 10-const
   ISPIN  =      2    spin polarized calculation?
   LNONCOLLINEAR =      F non collinear calculations
   LSORBIT =      F    spin-orbit coupling
   INIWAV =      1    electr: 0-lowe 1-rand  2-diag
   LASPH  =      F    aspherical Exc in radial PAW
   METAGGA=      F    non-selfconsistent MetaGGA calc.

 Electronic Relaxation 1
   ENCUT  =  500.0 eV  36.75 Ry    6.06 a.u.   8.21 23.21  8.21*2*pi/ulx,y,z
   ENINI  =  500.0     initial cutoff
   ENAUG  =  500.7 eV  augmentation charge cutoff
   NELM   =     60;   NELMIN=  2; NELMDL= -5     # of ELM steps 
   EDIFF  = 0.1E-05   stopping-criterion for ELM
   LREAL  =      F    real-space projection
   NLSPLINE    = F    spline interpolate recip. space projectors
   LCOMPAT=      F    compatible to vasp.4.4
   GGA_COMPAT  = T    GGA compatible to vasp.4.4-vasp.4.6
   LMAXPAW     = -100 max onsite density
   LMAXMIX     =    2 max onsite mixed and CHGCAR
   VOSKOWN=      0    Vosko Wilk Nusair interpolation
   ROPT   =    0.00000   0.00000
 Ionic relaxation
   EDIFFG = 0.1E-04   stopping-criterion for IOM
   NSW    =      0    number of steps for IOM
   NBLOCK =      1;   KBLOCK =      1    inner block; outer block 
   IBRION =     -1    ionic relax: 0-MD 1-quasi-New 2-CG
   NFREE  =      1    steps in history (QN), initial steepest desc. (CG)
   ISIF   =      2    stress and relaxation
   IWAVPR =     10    prediction:  0-non 1-charg 2-wave 3-comb
   ISYM   =      0    0-nonsym 1-usesym 2-fastsym
   LCORR  =      T    Harris-Foulkes like correction to forces

   POTIM  = 0.5000    time-step for ionic-motion
   TEIN   =    0.0    initial temperature
   TEBEG  =    0.0;   TEEND  =   0.0 temperature during run
   SMASS  =  -3.00    Nose mass-parameter (am)
   estimated Nose-frequenzy (Omega)   =  0.10E-29 period in steps =****** mass=  -0.463E-27a.u.
   SCALEE = 1.0000    scale energy and forces
   NPACO  =    256;   APACO  = 16.0  distance and # of slots for P.C.
   PSTRESS=    0.0 pullay stress

  Mass of Ions in am
   POMASS =  54.94208.98
  Ionic Valenz
   ZVAL   =   7.00  5.00
  Atomic Wigner-Seitz radii
   RWIGS  =  -1.00 -1.00
  virtual crystal weights 
   VCA    =   1.00  1.00
   NELECT =      48.0000    total number of electrons
   NUPDOWN=      -1.0000    fix difference up-down

 DOS related values:
   EMIN   =  10.00;   EMAX   =-10.00  energy-range for DOS
   EFERMI =   0.00
   ISMEAR =     1;   SIGMA  =   0.10  broadening in eV -4-tet -1-fermi 0-gaus

 Electronic relaxation 2 (details)
   IALGO  =     38    algorithm
   LDIAG  =      T    sub-space diagonalisation (order eigenvalues)
   LSUBROT=      F    optimize rotation matrix (better conditioning)
   TURBO    =      0    0=normal 1=particle mesh
   IRESTART =      0    0=no restart 2=restart with 2 vectors
   NREBOOT  =      0    no. of reboots
   NMIN     =      0    reboot dimension
   EREF     =   0.00    reference energy to select bands
   IMIX   =      4    mixing-type and parameters
     AMIX     =   0.40;   BMIX     =  1.00
     AMIX_MAG =   1.60;   BMIX_MAG =  1.00
     AMIN     =   0.10
     WC   =   100.;   INIMIX=   1;  MIXPRE=   1;  MAXMIX= -45

 Intra band minimization:
   WEIMIN = 0.0000     energy-eigenvalue tresh-hold
   EBREAK =  0.86E-08  absolut break condition
   DEPER  =   0.30     relativ break condition  

   TIME   =   0.40     timestep for ELM

  volume/ion in A,a.u.               =      32.23       217.50
  Fermi-wavevector in a.u.,A,eV,Ry     =   0.934775  1.766469 11.888837  0.873805
  Thomas-Fermi vector in A             =   2.061615
 
 Write flags
   LWAVE        =      F    write WAVECAR
   LDOWNSAMPLE  =      F    k-point downsampling of WAVECAR
   LCHARG       =      F    write CHGCAR
   LVTOT        =      F    write LOCPOT, total local potential
   LVHAR        =      F    write LOCPOT, Hartree potential only
   LELF         =      F    write electronic localiz. function (ELF)
   LORBIT       =     11    0 simple, 1 ext, 2 COOP (PROOUT), +10 PAW based schemes


 Dipole corrections
   LMONO  =      F    monopole corrections only (constant potential shift)
   LDIPOL =      F    correct potential (dipole corrections)
   IDIPOL =      0    1-x, 2-y, 3-z, 4-all directions 
   EPSILON=  1.0000000 bulk dielectric constant

 Exchange correlation treatment:
   GGA     =    --    GGA type
   LEXCH   =     8    internal setting for exchange type
   VOSKOWN=      0    Vosko Wilk Nusair interpolation
   LHFCALC =     F    Hartree Fock is set to
   LHFONE  =     F    Hartree Fock one center treatment
   AEXX    =    0.0000 exact exchange contribution

 Linear response parameters
   LEPSILON=     F    determine dielectric tensor
   LRPA    =     F    only Hartree local field effects (RPA)
   LNABLA  =     F    use nabla operator in PAW spheres
   LVEL    =     F    velocity operator in full k-point grid
   LINTERFAST=   F  fast interpolation
   KINTER  =     0    interpolate to denser k-point grid
   CSHIFT  =0.1000    complex shift for real part using Kramers Kronig
   OMEGAMAX=  -1.0    maximum frequency
   DEG_THRESHOLD= 0.2000000E-02 threshold for treating states as degnerate
   RTIME   =   -0.100 relaxation time in fs
  (WPLASMAI=    0.000 imaginary part of plasma frequency in eV, 0.658/RTIME)
   DFIELD  = 0.0000000 0.0000000 0.0000000 field for delta impulse in time
 
 Orbital magnetization related:
   ORBITALMAG=     F  switch on orbital magnetization
   LCHIMAG   =     F  perturbation theory with respect to B field
   DQ        =  0.001000  dq finite difference perturbation B field
   LLRAUG    =     F  two centre corrections for induced B field



--------------------------------------------------------------------------------------------------------


 Static calculation
 charge density and potential will be updated during run
 spin polarized calculation
 Variant of blocked Davidson
 Davidson routine will perform the subspace rotation
 perform sub-space diagonalisation
    after iterative eigenvector-optimisation
 modified Broyden-mixing scheme, WC =      100.0
 initial mixing is a Kerker type mixing with AMIX =  0.4000 and BMIX =      1.0000
 Hartree-type preconditioning will be used
 using additional bands            5
 reciprocal scheme for non local part
 use partial core corrections
 calculate Harris-corrections to forces 
   (improved forces if not selfconsistent)
 use gradient corrections 
 use of overlap-Matrix (Vanderbilt PP)
 Methfessel and Paxton  Order N= 1 SIGMA  =   0.10


--------------------------------------------------------------------------------------------------------


  energy-cutoff  :      500.00
  volume of cell :      257.84
      direct lattice vectors                 reciprocal lattice vectors
     4.500557900  0.000000000  0.000000000     0.222194675  0.000000003  0.000000002
    -0.000000200 10.393593400  7.349380200     0.000000000  0.064142077  0.045355298
     0.000000000 -2.598398300  3.674690100     0.000000000 -0.128284155  0.181421195

  length of vectors
     4.500557900 12.729500111  4.500557861     0.222194675  0.078557680  0.222194677


 
 k-points in units of 2pi/SCALE and weight: read from INCAR                         
   0.00000000  0.00000000  0.00000000       0.111
   0.07406489  0.00000000  0.00000000       0.222
   0.00000000 -0.04276138  0.06047373       0.222
   0.07406489 -0.04276138  0.06047373       0.222
  -0.07406489 -0.04276139  0.06047373       0.222
 
 k-points in reciprocal lattice and weights: read from INCAR                         
   0.00000000  0.00000000  0.00000000       0.111
   0.33333333 -0.00000000  0.00000000       0.222
   0.00000000 -0.00000000  0.33333333       0.222
   0.33333333 -0.00000000  0.33333333       0.222
  -0.33333333  0.00000000  0.33333333       0.222
 
 position of ions in fractional coordinates (direct lattice) 
   0.50000001  0.37500001  0.00000001
   0.00000001  0.62500001  0.50000001
   0.50000001  0.87500001  0.00000001
   0.00000001  0.12500001  0.50000001
   0.00000000  0.00000000  0.00000000
   0.50000000  0.25000000  0.50000000
   0.00000000  0.50000000  0.00000000
   0.50000000  0.75000000  0.50000000
 
 position of ions in cartesian coordinates  (Angst):
   2.25027890  3.89759760  2.75601770
  -0.00000010  5.19679680  6.43070780
   2.25027880  9.09439430  6.43070780
   0.00000000  0.00000010  2.75601770
   0.00000000  0.00000000  0.00000000
   2.25027890  1.29919920  3.67469010
  -0.00000010  5.19679670  3.67469010
   2.25027880  6.49599590  7.34938020
 


--------------------------------------------------------------------------------------------------------


 k-point  1 :   0.0000 0.0000 0.0000  plane waves:    6571
 k-point  2 :   0.3333-0.0000 0.0000  plane waves:    6550
 k-point  3 :   0.0000-0.0000 0.3333  plane waves:    6550
 k-point  4 :   0.3333-0.0000 0.3333  plane waves:    6538
 k-point  5 :  -0.3333 0.0000 0.3333  plane waves:    6538

 maximum and minimum number of plane-waves per node :       834      806

 maximum number of plane-waves:      6571
 maximum index in each direction: 
   IXMAX=    8   IYMAX=   23   IZMAX=    8
   IXMIN=   -8   IYMIN=  -23   IZMIN=   -8


 parallel 3D FFT for wavefunctions:
    minimum data exchange during FFTs selected (reduces bandwidth)
 parallel 3D FFT for charge:
    minimum data exchange during FFTs selected (reduces bandwidth)


 total amount of memory used by VASP MPI-rank0    51603. kBytes
=======================================================================

   base      :      30000. kBytes
   nonl-proj :       1290. kBytes
   fftplans  :       4808. kBytes
   grid      :      11572. kBytes
   one-center:         31. kBytes
   wavefun   :       3902. kBytes
 
     INWAV:  cpu time    0.0000: real time    0.0001
 Broyden mixing: mesh for mixing (old mesh)
   NGX = 17   NGY = 47   NGZ = 17
  (NGX  = 72   NGY  =192   NGZ  = 72)
  gives a total of  13583 points

 initial charge density was supplied:
 charge density of overlapping atoms calculated
 number of electron      48.0000000 magnetization       0.0000000
 keeping initial charge density in first step


--------------------------------------------------------------------------------------------------------


 Maximum index for augmentation-charges         5614 (set IRDMAX)


--------------------------------------------------------------------------------------------------------


 First call to EWALD:  gamma=   0.278
 Maximum number of real-space cells 4x 2x 4
 Maximum number of reciprocal cells 2x 5x 2

    FEWALD:  cpu time    0.0014: real time    0.0014


--------------------------------------- Iteration      1(   1)  ---------------------------------------


    POTLOK:  cpu time    0.1764: real time    0.1769
    SETDIJ:  cpu time    0.0154: real time    0.0154
     EDDAV:  cpu time    0.5569: real time    0.5649
       DOS:  cpu time    0.0009: real time    0.0009
    --------------------------------------------
      LOOP:  cpu time    0.7496: real time    0.7581

 eigenvalue-minimisations  :   580
 total energy-change (2. order) : 0.3519574E+03  (-0.1600345E+04)
 number of electron      48.0000000 magnetization       0.0000000
 augmentation part       48.0000000 magnetization       0.0000000

 Free energy of the ion-electron system (eV)
  ---------------------------------------------------
  alpha Z        PSCENC =        67.66360410
  Ewald energy   TEWEN  =     -1789.19724323
  -Hartree energ DENC   =      -644.87086981
  -exchange      EXHF   =         0.00000000
  -V(xc)+E(xc)   XCENC  =      -485.91984116
  PAW double counting   =      2520.09005386    -1992.98838836
  entropy T*S    EENTRO =        -0.00255746
  eigenvalues    EBANDS =       406.92292322
  atomic energy  EATOM  =      2270.25976610
  Solvation  Ediel_sol  =         0.00000000
  ---------------------------------------------------
  free energy    TOTEN  =       351.95744728 eV

  energy without entropy =      351.96000473  energy(sigma->0) =      351.95829976


--------------------------------------------------------------------------------------------------------




--------------------------------------- Iteration      1(   2)  ---------------------------------------


     EDDAV:  cpu time    0.5417: real time    0.5456
       DOS:  cpu time    0.0012: real time    0.0012
    --------------------------------------------
      LOOP:  cpu time    0.5429: real time    0.5468

 eigenvalue-minimisations  :   580
 total energy-change (2. order) :-0.3446024E+03  (-0.3341845E+03)
 number of electron      48.0000000 magnetization       0.0000000
 augmentation part       48.0000000 magnetization       0.0000000

 Free energy of the ion-electron system (eV)
  ---------------------------------------------------
  alpha Z        PSCENC =        67.66360410
  Ewald energy   TEWEN  =     -1789.19724323
  -Hartree energ DENC   =      -644.87086981
  -exchange      EXHF   =         0.00000000
  -V(xc)+E(xc)   XCENC  =      -485.91984116
  PAW double counting   =      2520.09005386    -1992.98838836
  entropy T*S    EENTRO =        -0.00019434
  eigenvalues    EBANDS =        62.31813460
  atomic energy  EATOM  =      2270.25976610
  Solvation  Ediel_sol  =         0.00000000
  ---------------------------------------------------
  free energy    TOTEN  =         7.35502177 eV

  energy without entropy =        7.35521612  energy(sigma->0) =        7.35508655


--------------------------------------------------------------------------------------------------------




--------------------------------------- Iteration      1(   3)  ---------------------------------------


     EDDAV:  cpu time    0.8140: real time    0.8161
       DOS:  cpu time    0.0012: real time    0.0012
    --------------------------------------------
      LOOP:  cpu time    0.8152: real time    0.8173

 eigenvalue-minimisations  :   936
 total energy-change (2. order) :-0.5219691E+02  (-0.4934003E+02)
 number of electron      48.0000000 magnetization       0.0000000
 augmentation part       48.0000000 magnetization       0.0000000

 Free energy of the ion-electron system (eV)
  ---------------------------------------------------
  alpha Z        PSCENC =        67.66360410
  Ewald energy   TEWEN  =     -1789.19724323
  -Hartree energ DENC   =      -644.87086981
  -exchange      EXHF   =         0.00000000
  -V(xc)+E(xc)   XCENC  =      -485.91984116
  PAW double counting   =      2520.09005386    -1992.98838836
  entropy T*S    EENTRO =         0.00239438
  eigenvalues    EBANDS =        10.11863241
  atomic energy  EATOM  =      2270.25976610
  Solvation  Ediel_sol  =         0.00000000
  ---------------------------------------------------
  free energy    TOTEN  =       -44.84189169 eV

  energy without entropy =      -44.84428607  energy(sigma->0) =      -44.84268982


--------------------------------------------------------------------------------------------------------




--------------------------------------- Iteration      1(   4)  ---------------------------------------


     EDDAV:  cpu time    0.8873: real time    0.8895
       DOS:  cpu time    0.0012: real time    0.0012
    --------------------------------------------
      LOOP:  cpu time    0.8885: real time    0.8907

 eigenvalue-minimisations  :  1048
 total energy-change (2. order) :-0.5009933E+01  (-0.4800413E+01)
 number of electron      48.0000000 magnetization       0.0000000
 augmentation part       48.0000000 magnetization       0.0000000

 Free energy of the ion-electron system (eV)
  ---------------------------------------------------
  alpha Z        PSCENC =        67.66360410
  Ewald energy   TEWEN  =     -1789.19724323
  -Hartree energ DENC   =      -644.87086981
  -exchange      EXHF   =         0.00000000
  -V(xc)+E(xc)   XCENC  =      -485.91984116
  PAW double counting   =      2520.09005386    -1992.98838836
  entropy T*S    EENTRO =        -0.00470991
  eigenvalues    EBANDS =         5.11580321
  atomic energy  EATOM  =      2270.25976610
  Solvation  Ediel_sol  =         0.00000000
  ---------------------------------------------------
  free energy    TOTEN  =       -49.85182519 eV

  energy without entropy =      -49.84711527  energy(sigma->0) =      -49.85025522


--------------------------------------------------------------------------------------------------------




--------------------------------------- Iteration      1(   5)  ---------------------------------------


     EDDAV:  cpu time    0.8509: real time    0.8532
       DOS:  cpu time    0.0012: real time    0.0012
    CHARGE:  cpu time    0.0737: real time    0.0739
    MIXING:  cpu time    0.0028: real time    0.0028
    --------------------------------------------
      LOOP:  cpu time    0.9287: real time    0.9312

 eigenvalue-minimisations  :   960
 total energy-change (2. order) :-0.3267645E+00  (-0.3083895E+00)
 number of electron      48.0000017 magnetization      -0.0039764
 augmentation part        3.8013065 magnetization      -0.0004858

 Broyden mixing:
  rms(total) = 0.19134E+01    rms(broyden)= 0.19134E+01
  rms(prec ) = 0.23523E+01
  weight for this iteration     100.00

 Free energy of the ion-electron system (eV)
  ---------------------------------------------------
  alpha Z        PSCENC =        67.66360410
  Ewald energy   TEWEN  =     -1789.19724323
  -Hartree energ DENC   =      -644.87086981
  -exchange      EXHF   =         0.00000000
  -V(xc)+E(xc)   XCENC  =      -485.91984116
  PAW double counting   =      2520.09005386    -1992.98838836
  entropy T*S    EENTRO =        -0.00165904
  eigenvalues    EBANDS =         4.78598784
  atomic energy  EATOM  =      2270.25976610
  Solvation  Ediel_sol  =         0.00000000
  ---------------------------------------------------
  free energy    TOTEN  =       -50.17858968 eV

  energy without entropy =      -50.17693064  energy(sigma->0) =      -50.17803667


--------------------------------------------------------------------------------------------------------




--------------------------------------- Iteration      1(   6)  ---------------------------------------


    POTLOK:  cpu time    0.1576: real time    0.1581
    SETDIJ:  cpu time    0.0150: real time    0.0150
     EDDAV:  cpu time    0.9466: real time    0.9488
       DOS:  cpu time    0.0014: real time    0.0014
    CHARGE:  cpu time    0.0777: real time    0.0780
    MIXING:  cpu time    0.0034: real time    0.0034
    --------------------------------------------
      LOOP:  cpu time    1.2018: real time    1.2048

 eigenvalue-minimisations  :  1115
 total energy-change (2. order) :-0.6039168E+01  (-0.1743242E+02)
 number of electron      48.0000030 magnetization      -0.0266263
 augmentation part       12.9996834 magnetization       0.0668324

 Broyden mixing:
  rms(total) = 0.43823E+01    rms(broyden)= 0.43823E+01
  rms(prec ) = 0.49332E+01
  weight for this iteration     100.00

 eigenvalues of (default mixing * dielectric matrix)
  average eigenvalue GAMMA=   0.2204
  0.2204

 Free energy of the ion-electron system (eV)
  ---------------------------------------------------
  alpha Z        PSCENC =        67.66360410
  Ewald energy   TEWEN  =     -1789.19724323
  -Hartree energ DENC   =      -560.33855563
  -exchange      EXHF   =         0.00000000
  -V(xc)+E(xc)   XCENC  =      -484.16725221
  PAW double counting   =      2530.96329601    -1998.03984219
  entropy T*S    EENTRO =        -0.01920236
  eigenvalues    EBANDS =       -93.34232831
  atomic energy  EATOM  =      2270.25976610
  Solvation  Ediel_sol  =         0.00000000
  ---------------------------------------------------
  free energy    TOTEN  =       -56.21775771 eV

  energy without entropy =      -56.19855535  energy(sigma->0) =      -56.21135692


--------------------------------------------------------------------------------------------------------




--------------------------------------- Iteration      1(   7)  ---------------------------------------


    POTLOK:  cpu time    0.1658: real time    0.1663
    SETDIJ:  cpu time    0.0146: real time    0.0146
     EDDAV:  cpu time    0.8281: real time    0.8300
       DOS:  cpu time    0.0014: real time    0.0014
    CHARGE:  cpu time    0.0747: real time    0.0749
    MIXING:  cpu time    0.0032: real time    0.0032
    --------------------------------------------
      LOOP:  cpu time    1.0877: real time    1.0904

 eigenvalue-minimisations  :   985
 total energy-change (2. order) : 0.1054253E+02  (-0.5816336E+01)
 number of electron      48.0000023 magnetization      -0.0265542
 augmentation part        7.8202231 magnetization       0.0448978

 Broyden mixing:
  rms(total) = 0.78154E+00    rms(broyden)= 0.78150E+00
  rms(prec ) = 0.83484E+00
  weight for this iteration     100.00

 eigenvalues of (default mixing * dielectric matrix)
  average eigenvalue GAMMA=   0.5128
  0.7350  0.2907

 Free energy of the ion-electron system (eV)
  ---------------------------------------------------
  alpha Z        PSCENC =        67.66360410
  Ewald energy   TEWEN  =     -1789.19724323
  -Hartree energ DENC   =      -601.86215819
  -exchange      EXHF   =         0.00000000
  -V(xc)+E(xc)   XCENC  =      -485.00363832
  PAW double counting   =      2672.22267165    -2144.85413281
  entropy T*S    EENTRO =        -0.00979840
  eigenvalues    EBANDS =       -34.89430119
  atomic energy  EATOM  =      2270.25976610
  Solvation  Ediel_sol  =         0.00000000
  ---------------------------------------------------
  free energy    TOTEN  =       -45.67523029 eV

  energy without entropy =      -45.66543189  energy(sigma->0) =      -45.67196416


--------------------------------------------------------------------------------------------------------




--------------------------------------- Iteration      1(   8)  ---------------------------------------


    POTLOK:  cpu time    0.1584: real time    0.1589
    SETDIJ:  cpu time    0.0150: real time    0.0151
     EDDAV:  cpu time    0.8728: real time    0.8749
       DOS:  cpu time    0.0014: real time    0.0014
    CHARGE:  cpu time    0.0774: real time    0.0776
    MIXING:  cpu time    0.0034: real time    0.0034
    --------------------------------------------
      LOOP:  cpu time    1.1284: real time    1.1311

 eigenvalue-minimisations  :  1072
 total energy-change (2. order) :-0.4912625E+00  (-0.7807203E+00)
 number of electron      48.0000021 magnetization       0.0426606
 augmentation part        6.7440530 magnetization      -0.2226417

 Broyden mixing:
  rms(total) = 0.50314E+00    rms(broyden)= 0.50310E+00
  rms(prec ) = 0.58079E+00
  weight for this iteration     100.00

 eigenvalues of (default mixing * dielectric matrix)
  average eigenvalue GAMMA=   0.6776
  1.1942  0.3415  0.4972

 Free energy of the ion-electron system (eV)
  ---------------------------------------------------
  alpha Z        PSCENC =        67.66360410
  Ewald energy   TEWEN  =     -1789.19724323
  -Hartree energ DENC   =      -609.46078496
  -exchange      EXHF   =         0.00000000
  -V(xc)+E(xc)   XCENC  =      -482.14284957
  PAW double counting   =      2751.43220719    -2227.25690137
  entropy T*S    EENTRO =        -0.01190819
  eigenvalues    EBANDS =       -27.45238286
  atomic energy  EATOM  =      2270.25976610
  Solvation  Ediel_sol  =         0.00000000
  ---------------------------------------------------
  free energy    TOTEN  =       -46.16649279 eV

  energy without entropy =      -46.15458460  energy(sigma->0) =      -46.16252339


--------------------------------------------------------------------------------------------------------




--------------------------------------- Iteration      1(   9)  ---------------------------------------


    POTLOK:  cpu time    0.1618: real time    0.1623
    SETDIJ:  cpu time    0.0141: real time    0.0142
     EDDAV:  cpu time    0.8891: real time    0.8912
       DOS:  cpu time    0.0013: real time    0.0013
    CHARGE:  cpu time    0.0764: real time    0.0765
    MIXING:  cpu time    0.0035: real time    0.0035
    --------------------------------------------
      LOOP:  cpu time    1.1462: real time    1.1490

 eigenvalue-minimisations  :  1064
 total energy-change (2. order) :-0.1058961E+00  (-0.2914710E+00)
 number of electron      48.0000021 magnetization      -0.0019939
 augmentation part        6.7955136 magnetization       0.4068290

 Broyden mixing:
  rms(total) = 0.53787E+00    rms(broyden)= 0.53785E+00
  rms(prec ) = 0.63649E+00
  weight for this iteration     100.00

 eigenvalues of (default mixing * dielectric matrix)
  average eigenvalue GAMMA=   0.7130
  1.6553  0.5617  0.3346  0.3004

 Free energy of the ion-electron system (eV)
  ---------------------------------------------------
  alpha Z        PSCENC =        67.66360410
  Ewald energy   TEWEN  =     -1789.19724323
  -Hartree energ DENC   =      -606.98249499
  -exchange      EXHF   =         0.00000000
  -V(xc)+E(xc)   XCENC  =      -480.82146432
  PAW double counting   =      2825.22213868    -2302.66170201
  entropy T*S    EENTRO =        -0.00571945
  eigenvalues    EBANDS =       -29.74927382
  atomic energy  EATOM  =      2270.25976610
  Solvation  Ediel_sol  =         0.00000000
  ---------------------------------------------------
  free energy    TOTEN  =       -46.27238893 eV

  energy without entropy =      -46.26666948  energy(sigma->0) =      -46.27048245


--------------------------------------------------------------------------------------------------------




--------------------------------------- Iteration      1(  10)  ---------------------------------------


    POTLOK:  cpu time    0.1650: real time    0.1655
    SETDIJ:  cpu time    0.0154: real time    0.0155
     EDDAV:  cpu time    0.8819: real time    0.8840
       DOS:  cpu time    0.0013: real time    0.0013
    CHARGE:  cpu time    0.0721: real time    0.0723
    MIXING:  cpu time    0.0030: real time    0.0031
    --------------------------------------------
      LOOP:  cpu time    1.1388: real time    1.1416

 eigenvalue-minimisations  :  1048
 total energy-change (2. order) : 0.1799759E+00  (-0.8324273E-01)
 number of electron      48.0000022 magnetization       0.0148806
 augmentation part        6.9401662 magnetization       0.0081571

 Broyden mixing:
  rms(total) = 0.17947E+00    rms(broyden)= 0.17946E+00
  rms(prec ) = 0.18973E+00
  weight for this iteration     100.00

 eigenvalues of (default mixing * dielectric matrix)
  average eigenvalue GAMMA=   0.8090
  2.0783  0.6593  0.6593  0.3357  0.3122

 Free energy of the ion-electron system (eV)
  ---------------------------------------------------
  alpha Z        PSCENC =        67.66360410
  Ewald energy   TEWEN  =     -1789.19724323
  -Hartree energ DENC   =      -603.92635431
  -exchange      EXHF   =         0.00000000
  -V(xc)+E(xc)   XCENC  =      -480.02849141
  PAW double counting   =      2888.22196492    -2366.88614548
  entropy T*S    EENTRO =        -0.01855954
  eigenvalues    EBANDS =       -32.18095422
  atomic energy  EATOM  =      2270.25976610
  Solvation  Ediel_sol  =         0.00000000
  ---------------------------------------------------
  free energy    TOTEN  =       -46.09241306 eV

  energy without entropy =      -46.07385352  energy(sigma->0) =      -46.08622654


--------------------------------------------------------------------------------------------------------




--------------------------------------- Iteration      1(  11)  ---------------------------------------


    POTLOK:  cpu time    0.1514: real time    0.1518
    SETDIJ:  cpu time    0.0148: real time    0.0148
     EDDAV:  cpu time    0.8460: real time    0.8480
       DOS:  cpu time    0.0013: real time    0.0013
    CHARGE:  cpu time    0.0745: real time    0.0747
    MIXING:  cpu time    0.0034: real time    0.0034
    --------------------------------------------
      LOOP:  cpu time    1.0914: real time    1.0941

 eigenvalue-minimisations  :  1016
 total energy-change (2. order) :-0.2516041E-01  (-0.3057746E-01)
 number of electron      48.0000022 magnetization       0.0159503
 augmentation part        7.0611907 magnetization      -0.0384730

 Broyden mixing:
  rms(total) = 0.15445E+00    rms(broyden)= 0.15444E+00
  rms(prec ) = 0.17100E+00
  weight for this iteration     100.00

 eigenvalues of (default mixing * dielectric matrix)
  average eigenvalue GAMMA=   0.8148
  2.1660  0.9699  0.6265  0.4464  0.3401  0.3401

 Free energy of the ion-electron system (eV)
  ---------------------------------------------------
  alpha Z        PSCENC =        67.66360410
  Ewald energy   TEWEN  =     -1789.19724323
  -Hartree energ DENC   =      -602.59069153
  -exchange      EXHF   =         0.00000000
  -V(xc)+E(xc)   XCENC  =      -479.96090725
  PAW double counting   =      2915.56197376    -2394.83539122
  entropy T*S    EENTRO =        -0.01740196
  eigenvalues    EBANDS =       -33.00128224
  atomic energy  EATOM  =      2270.25976610
  Solvation  Ediel_sol  =         0.00000000
  ---------------------------------------------------
  free energy    TOTEN  =       -46.11757347 eV

  energy without entropy =      -46.10017151  energy(sigma->0) =      -46.11177281


--------------------------------------------------------------------------------------------------------




--------------------------------------- Iteration      1(  12)  ---------------------------------------


    POTLOK:  cpu time    0.1588: real time    0.1593
    SETDIJ:  cpu time    0.0150: real time    0.0150
     EDDAV:  cpu time    0.8477: real time    0.8497
       DOS:  cpu time    0.0013: real time    0.0013
    CHARGE:  cpu time    0.0769: real time    0.0771
    MIXING:  cpu time    0.0037: real time    0.0038
    --------------------------------------------
      LOOP:  cpu time    1.1035: real time    1.1062

 eigenvalue-minimisations  :  1024
 total energy-change (2. order) :-0.5362953E-02  (-0.5618417E-02)
 number of electron      48.0000022 magnetization       0.0165439
 augmentation part        7.0602271 magnetization      -0.0180243

 Broyden mixing:
  rms(total) = 0.82672E-01    rms(broyden)= 0.82671E-01
  rms(prec ) = 0.93461E-01
  weight for this iteration     100.00

 eigenvalues of (default mixing * dielectric matrix)
  average eigenvalue GAMMA=   0.8439
  2.1656  1.4927  0.5943  0.5943  0.3264  0.3670  0.3670

 Free energy of the ion-electron system (eV)
  ---------------------------------------------------
  alpha Z        PSCENC =        67.66360410
  Ewald energy   TEWEN  =     -1789.19724323
  -Hartree energ DENC   =      -602.58137908
  -exchange      EXHF   =         0.00000000
  -V(xc)+E(xc)   XCENC  =      -480.22593223
  PAW double counting   =      2923.81743166    -2403.26694996
  entropy T*S    EENTRO =        -0.01808221
  eigenvalues    EBANDS =       -32.57415157
  atomic energy  EATOM  =      2270.25976610
  Solvation  Ediel_sol  =         0.00000000
  ---------------------------------------------------
  free energy    TOTEN  =       -46.12293642 eV

  energy without entropy =      -46.10485420  energy(sigma->0) =      -46.11690901


--------------------------------------------------------------------------------------------------------




--------------------------------------- Iteration      1(  13)  ---------------------------------------


    POTLOK:  cpu time    0.1632: real time    0.1637
    SETDIJ:  cpu time    0.0156: real time    0.0156
     EDDAV:  cpu time    0.8999: real time    0.9021
       DOS:  cpu time    0.0013: real time    0.0013
    CHARGE:  cpu time    0.0723: real time    0.0724
    MIXING:  cpu time    0.0035: real time    0.0035
    --------------------------------------------
      LOOP:  cpu time    1.1558: real time    1.1586

 eigenvalue-minimisations  :  1056
 total energy-change (2. order) :-0.5764800E-03  (-0.2556256E-02)
 number of electron      48.0000022 magnetization       0.0136211
 augmentation part        7.0382112 magnetization       0.0143711

 Broyden mixing:
  rms(total) = 0.34680E-01    rms(broyden)= 0.34678E-01
  rms(prec ) = 0.37228E-01
  weight for this iteration     100.00

 eigenvalues of (default mixing * dielectric matrix)
  average eigenvalue GAMMA=   0.8770
  2.2759  1.7952  0.6968  0.6968  0.5440  0.3472  0.3302  0.3302

 Free energy of the ion-electron system (eV)
  ---------------------------------------------------
  alpha Z        PSCENC =        67.66360410
  Ewald energy   TEWEN  =     -1789.19724323
  -Hartree energ DENC   =      -602.81407603
  -exchange      EXHF   =         0.00000000
  -V(xc)+E(xc)   XCENC  =      -480.38853667
  PAW double counting   =      2926.45615180    -2405.95906320
  entropy T*S    EENTRO =        -0.01877820
  eigenvalues    EBANDS =       -32.12533757
  atomic energy  EATOM  =      2270.25976610
  Solvation  Ediel_sol  =         0.00000000
  ---------------------------------------------------
  free energy    TOTEN  =       -46.12351290 eV

  energy without entropy =      -46.10473470  energy(sigma->0) =      -46.11725350


--------------------------------------------------------------------------------------------------------




--------------------------------------- Iteration      1(  14)  ---------------------------------------


    POTLOK:  cpu time    0.1534: real time    0.1539
    SETDIJ:  cpu time    0.0153: real time    0.0153
     EDDAV:  cpu time    0.8401: real time    0.8421
       DOS:  cpu time    0.0013: real time    0.0013
    CHARGE:  cpu time    0.0739: real time    0.0740
    MIXING:  cpu time    0.0040: real time    0.0040
    --------------------------------------------
      LOOP:  cpu time    1.0880: real time    1.0907

 eigenvalue-minimisations  :   992
 total energy-change (2. order) :-0.1329509E-02  (-0.6866193E-03)
 number of electron      48.0000022 magnetization       0.0094694
 augmentation part        7.0109997 magnetization       0.0135811

 Broyden mixing:
  rms(total) = 0.13887E-01    rms(broyden)= 0.13886E-01
  rms(prec ) = 0.15512E-01
  weight for this iteration     100.00

 eigenvalues of (default mixing * dielectric matrix)
  average eigenvalue GAMMA=   0.8717
  2.3636  1.6831  0.8041  0.8041  0.6071  0.5583  0.3319  0.3319  0.3614

 Free energy of the ion-electron system (eV)
  ---------------------------------------------------
  alpha Z        PSCENC =        67.66360410
  Ewald energy   TEWEN  =     -1789.19724323
  -Hartree energ DENC   =      -603.10074031
  -exchange      EXHF   =         0.00000000
  -V(xc)+E(xc)   XCENC  =      -480.48984968
  PAW double counting   =      2928.78528390    -2408.32978236
  entropy T*S    EENTRO =        -0.01945260
  eigenvalues    EBANDS =       -31.69642834
  atomic energy  EATOM  =      2270.25976610
  Solvation  Ediel_sol  =         0.00000000
  ---------------------------------------------------
  free energy    TOTEN  =       -46.12484241 eV

  energy without entropy =      -46.10538981  energy(sigma->0) =      -46.11835821


--------------------------------------------------------------------------------------------------------




--------------------------------------- Iteration      1(  15)  ---------------------------------------


    POTLOK:  cpu time    0.1585: real time    0.1590
    SETDIJ:  cpu time    0.0150: real time    0.0150
     EDDAV:  cpu time    0.9080: real time    0.9102
       DOS:  cpu time    0.0013: real time    0.0013
    CHARGE:  cpu time    0.0756: real time    0.0758
    MIXING:  cpu time    0.0042: real time    0.0042
    --------------------------------------------
      LOOP:  cpu time    1.1626: real time    1.1654

 eigenvalue-minimisations  :  1120
 total energy-change (2. order) :-0.1067017E-03  (-0.1385185E-03)
 number of electron      48.0000022 magnetization       0.0067741
 augmentation part        7.0052650 magnetization       0.0035365

 Broyden mixing:
  rms(total) = 0.85653E-02    rms(broyden)= 0.85647E-02
  rms(prec ) = 0.96379E-02
  weight for this iteration     100.00

 eigenvalues of (default mixing * dielectric matrix)
  average eigenvalue GAMMA=   0.8980
  2.3959  1.6563  1.2791  0.7552  0.7552  0.5518  0.5518  0.3345  0.3345  0.3658

 Free energy of the ion-electron system (eV)
  ---------------------------------------------------
  alpha Z        PSCENC =        67.66360410
  Ewald energy   TEWEN  =     -1789.19724323
  -Hartree energ DENC   =      -603.15341759
  -exchange      EXHF   =         0.00000000
  -V(xc)+E(xc)   XCENC  =      -480.46611123
  PAW double counting   =      2929.33893689    -2408.88600096
  entropy T*S    EENTRO =        -0.01952379
  eigenvalues    EBANDS =       -31.66495940
  atomic energy  EATOM  =      2270.25976610
  Solvation  Ediel_sol  =         0.00000000
  ---------------------------------------------------
  free energy    TOTEN  =       -46.12494911 eV

  energy without entropy =      -46.10542532  energy(sigma->0) =      -46.11844118


--------------------------------------------------------------------------------------------------------




--------------------------------------- Iteration      1(  16)  ---------------------------------------


    POTLOK:  cpu time    0.1608: real time    0.1613
    SETDIJ:  cpu time    0.0153: real time    0.0154
     EDDAV:  cpu time    0.8617: real time    0.8637
       DOS:  cpu time    0.0013: real time    0.0013
    CHARGE:  cpu time    0.0746: real time    0.0748
    MIXING:  cpu time    0.0043: real time    0.0043
    --------------------------------------------
      LOOP:  cpu time    1.1180: real time    1.1207

 eigenvalue-minimisations  :  1024
 total energy-change (2. order) :-0.1013595E-03  (-0.4219892E-04)
 number of electron      48.0000022 magnetization       0.0045669
 augmentation part        7.0063741 magnetization       0.0049672

 Broyden mixing:
  rms(total) = 0.53072E-02    rms(broyden)= 0.53070E-02
  rms(prec ) = 0.60784E-02
  weight for this iteration     100.00

 eigenvalues of (default mixing * dielectric matrix)
  average eigenvalue GAMMA=   0.9210
  2.4546  1.6978  1.6978  0.8091  0.8091  0.5468  0.5468  0.5278  0.3348  0.3348
  0.3716

 Free energy of the ion-electron system (eV)
  ---------------------------------------------------
  alpha Z        PSCENC =        67.66360410
  Ewald energy   TEWEN  =     -1789.19724323
  -Hartree energ DENC   =      -603.16982407
  -exchange      EXHF   =         0.00000000
  -V(xc)+E(xc)   XCENC  =      -480.45134970
  PAW double counting   =      2929.84594212    -2409.38890639
  entropy T*S    EENTRO =        -0.01953931
  eigenvalues    EBANDS =       -31.66750009
  atomic energy  EATOM  =      2270.25976610
  Solvation  Ediel_sol  =         0.00000000
  ---------------------------------------------------
  free energy    TOTEN  =       -46.12505047 eV

  energy without entropy =      -46.10551116  energy(sigma->0) =      -46.11853737


--------------------------------------------------------------------------------------------------------




--------------------------------------- Iteration      1(  17)  ---------------------------------------


    POTLOK:  cpu time    0.1584: real time    0.1589
    SETDIJ:  cpu time    0.0152: real time    0.0153
     EDDAV:  cpu time    0.8542: real time    0.8562
       DOS:  cpu time    0.0013: real time    0.0013
    CHARGE:  cpu time    0.0757: real time    0.0759
    MIXING:  cpu time    0.0045: real time    0.0045
    --------------------------------------------
      LOOP:  cpu time    1.1093: real time    1.1120

 eigenvalue-minimisations  :  1056
 total energy-change (2. order) :-0.6409799E-04  (-0.1977442E-04)
 number of electron      48.0000022 magnetization       0.0035580
 augmentation part        7.0089292 magnetization       0.0007440

 Broyden mixing:
  rms(total) = 0.42861E-02    rms(broyden)= 0.42860E-02
  rms(prec ) = 0.50409E-02
  weight for this iteration     100.00

 eigenvalues of (default mixing * dielectric matrix)
  average eigenvalue GAMMA=   0.9475
  2.6467  1.9077  1.9077  0.8753  0.8753  0.6226  0.5755  0.5755  0.3345  0.3345
  0.3572  0.3572

 Free energy of the ion-electron system (eV)
  ---------------------------------------------------
  alpha Z        PSCENC =        67.66360410
  Ewald energy   TEWEN  =     -1789.19724323
  -Hartree energ DENC   =      -603.16044912
  -exchange      EXHF   =         0.00000000
  -V(xc)+E(xc)   XCENC  =      -480.44227559
  PAW double counting   =      2930.21045661    -2409.75301227
  entropy T*S    EENTRO =        -0.01951471
  eigenvalues    EBANDS =       -31.68644647
  atomic energy  EATOM  =      2270.25976610
  Solvation  Ediel_sol  =         0.00000000
  ---------------------------------------------------
  free energy    TOTEN  =       -46.12511457 eV

  energy without entropy =      -46.10559986  energy(sigma->0) =      -46.11860966


--------------------------------------------------------------------------------------------------------




--------------------------------------- Iteration      1(  18)  ---------------------------------------


    POTLOK:  cpu time    0.1615: real time    0.1619
    SETDIJ:  cpu time    0.0150: real time    0.0150
     EDDAV:  cpu time    0.8110: real time    0.8130
       DOS:  cpu time    0.0013: real time    0.0013
    CHARGE:  cpu time    0.0767: real time    0.0769
    MIXING:  cpu time    0.0048: real time    0.0048
    --------------------------------------------
      LOOP:  cpu time    1.0703: real time    1.0730

 eigenvalue-minimisations  :   984
 total energy-change (2. order) :-0.2490347E-04  (-0.9411003E-05)
 number of electron      48.0000022 magnetization       0.0027103
 augmentation part        7.0101124 magnetization       0.0024027

 Broyden mixing:
  rms(total) = 0.17092E-02    rms(broyden)= 0.17091E-02
  rms(prec ) = 0.18751E-02
  weight for this iteration     100.00

 eigenvalues of (default mixing * dielectric matrix)
  average eigenvalue GAMMA=   0.9558
  2.8458  2.2049  1.4251  1.3228  0.7694  0.7694  0.5874  0.5874  0.5359  0.3720
  0.3343  0.3343  0.3373

 Free energy of the ion-electron system (eV)
  ---------------------------------------------------
  alpha Z        PSCENC =        67.66360410
  Ewald energy   TEWEN  =     -1789.19724323
  -Hartree energ DENC   =      -603.16187468
  -exchange      EXHF   =         0.00000000
  -V(xc)+E(xc)   XCENC  =      -480.44131486
  PAW double counting   =      2930.39028915    -2409.93272471
  entropy T*S    EENTRO =        -0.01952492
  eigenvalues    EBANDS =       -31.68611643
  atomic energy  EATOM  =      2270.25976610
  Solvation  Ediel_sol  =         0.00000000
  ---------------------------------------------------
  free energy    TOTEN  =       -46.12513947 eV

  energy without entropy =      -46.10561455  energy(sigma->0) =      -46.11863116


--------------------------------------------------------------------------------------------------------




--------------------------------------- Iteration      1(  19)  ---------------------------------------


    POTLOK:  cpu time    0.1606: real time    0.1610
    SETDIJ:  cpu time    0.0142: real time    0.0143
     EDDAV:  cpu time    0.7726: real time    0.7745
       DOS:  cpu time    0.0013: real time    0.0013
    CHARGE:  cpu time    0.0721: real time    0.0723
    MIXING:  cpu time    0.0048: real time    0.0048
    --------------------------------------------
      LOOP:  cpu time    1.0256: real time    1.0281

 eigenvalue-minimisations  :   928
 total energy-change (2. order) :-0.1159952E-04  (-0.2386612E-05)
 number of electron      48.0000022 magnetization       0.0018313
 augmentation part        7.0101494 magnetization       0.0016060

 Broyden mixing:
  rms(total) = 0.14236E-02    rms(broyden)= 0.14235E-02
  rms(prec ) = 0.15306E-02
  weight for this iteration     100.00

 eigenvalues of (default mixing * dielectric matrix)
  average eigenvalue GAMMA=   0.9839
  2.9399  2.1856  1.5996  1.5996  0.8330  0.8330  0.6653  0.5948  0.5948  0.5263
  0.3347  0.3347  0.3766  0.3559

 Free energy of the ion-electron system (eV)
  ---------------------------------------------------
  alpha Z        PSCENC =        67.66360410
  Ewald energy   TEWEN  =     -1789.19724323
  -Hartree energ DENC   =      -603.16796577
  -exchange      EXHF   =         0.00000000
  -V(xc)+E(xc)   XCENC  =      -480.44185110
  PAW double counting   =      2930.39776927    -2409.94060165
  entropy T*S    EENTRO =        -0.01955276
  eigenvalues    EBANDS =       -31.67907603
  atomic energy  EATOM  =      2270.25976610
  Solvation  Ediel_sol  =         0.00000000
  ---------------------------------------------------
  free energy    TOTEN  =       -46.12515107 eV

  energy without entropy =      -46.10559831  energy(sigma->0) =      -46.11863348


--------------------------------------------------------------------------------------------------------




--------------------------------------- Iteration      1(  20)  ---------------------------------------


    POTLOK:  cpu time    0.1481: real time    0.1485
    SETDIJ:  cpu time    0.0132: real time    0.0132
     EDDAV:  cpu time    0.6927: real time    0.6943
       DOS:  cpu time    0.0013: real time    0.0013
    CHARGE:  cpu time    0.0771: real time    0.0773
    MIXING:  cpu time    0.0051: real time    0.0051
    --------------------------------------------
      LOOP:  cpu time    0.9375: real time    0.9397

 eigenvalue-minimisations  :   752
 total energy-change (2. order) :-0.4408464E-05  (-0.7780308E-06)
 number of electron      48.0000022 magnetization       0.0008663
 augmentation part        7.0102077 magnetization       0.0002914

 Broyden mixing:
  rms(total) = 0.78758E-03    rms(broyden)= 0.78754E-03
  rms(prec ) = 0.81662E-03
  weight for this iteration     100.00

 eigenvalues of (default mixing * dielectric matrix)
  average eigenvalue GAMMA=   1.0426
  3.3845  2.2745  1.9046  1.7474  0.9032  0.9032  0.7004  0.7004  0.5921  0.5582
  0.5582  0.3346  0.3346  0.3792  0.3629

 Free energy of the ion-electron system (eV)
  ---------------------------------------------------
  alpha Z        PSCENC =        67.66360410
  Ewald energy   TEWEN  =     -1789.19724323
  -Hartree energ DENC   =      -603.16888515
  -exchange      EXHF   =         0.00000000
  -V(xc)+E(xc)   XCENC  =      -480.43843026
  PAW double counting   =      2930.35429877    -2409.89695424
  entropy T*S    EENTRO =        -0.01957386
  eigenvalues    EBANDS =       -31.68173773
  atomic energy  EATOM  =      2270.25976610
  Solvation  Ediel_sol  =         0.00000000
  ---------------------------------------------------
  free energy    TOTEN  =       -46.12515548 eV

  energy without entropy =      -46.10558162  energy(sigma->0) =      -46.11863086


--------------------------------------------------------------------------------------------------------




--------------------------------------- Iteration      1(  21)  ---------------------------------------


    POTLOK:  cpu time    0.1542: real time    0.1550
    SETDIJ:  cpu time    0.0134: real time    0.0134
     EDDAV:  cpu time    0.6079: real time    0.6094
       DOS:  cpu time    0.0013: real time    0.0013
    CHARGE:  cpu time    0.0750: real time    0.0752
    MIXING:  cpu time    0.0051: real time    0.0051
    --------------------------------------------
      LOOP:  cpu time    0.8569: real time    0.8594

 eigenvalue-minimisations  :   656
 total energy-change (2. order) :-0.2347018E-05  (-0.4184536E-06)
 number of electron      48.0000022 magnetization       0.0005212
 augmentation part        7.0104550 magnetization       0.0002249

 Broyden mixing:
  rms(total) = 0.25270E-03    rms(broyden)= 0.25265E-03
  rms(prec ) = 0.28179E-03
  weight for this iteration     100.00

 eigenvalues of (default mixing * dielectric matrix)
  average eigenvalue GAMMA=   1.0660
  3.7313  2.3898  1.9814  1.7109  1.0356  0.8367  0.8367  0.7258  0.7258  0.5735
  0.5735  0.5217  0.3346  0.3346  0.3804  0.3630

 Free energy of the ion-electron system (eV)
  ---------------------------------------------------
  alpha Z        PSCENC =        67.66360410
  Ewald energy   TEWEN  =     -1789.19724323
  -Hartree energ DENC   =      -603.16802508
  -exchange      EXHF   =         0.00000000
  -V(xc)+E(xc)   XCENC  =      -480.43494317
  PAW double counting   =      2930.31663283    -2409.85874143
  entropy T*S    EENTRO =        -0.01959040
  eigenvalues    EBANDS =       -31.68661756
  atomic energy  EATOM  =      2270.25976610
  Solvation  Ediel_sol  =         0.00000000
  ---------------------------------------------------
  free energy    TOTEN  =       -46.12515782 eV

  energy without entropy =      -46.10556743  energy(sigma->0) =      -46.11862769


--------------------------------------------------------------------------------------------------------




--------------------------------------- Iteration      1(  22)  ---------------------------------------


    POTLOK:  cpu time    0.1577: real time    0.1582
    SETDIJ:  cpu time    0.0148: real time    0.0149
     EDDAV:  cpu time    0.4672: real time    0.4683
       DOS:  cpu time    0.0013: real time    0.0013
    --------------------------------------------
      LOOP:  cpu time    0.6410: real time    0.6426

 eigenvalue-minimisations  :   456
 total energy-change (2. order) :-0.3032537E-06  (-0.9943003E-07)
 number of electron      48.0000022 magnetization       0.0005212
 augmentation part        7.0104550 magnetization       0.0002249

 Free energy of the ion-electron system (eV)
  ---------------------------------------------------
  alpha Z        PSCENC =        67.66360410
  Ewald energy   TEWEN  =     -1789.19724323
  -Hartree energ DENC   =      -603.16678740
  -exchange      EXHF   =         0.00000000
  -V(xc)+E(xc)   XCENC  =      -480.43476562
  PAW double counting   =      2930.29842817    -2409.84047540
  entropy T*S    EENTRO =        -0.01959100
  eigenvalues    EBANDS =       -31.68809385
  atomic energy  EATOM  =      2270.25976610
  Solvation  Ediel_sol  =         0.00000000
  ---------------------------------------------------
  free energy    TOTEN  =       -46.12515813 eV

  energy without entropy =      -46.10556713  energy(sigma->0) =      -46.11862780


--------------------------------------------------------------------------------------------------------




 average (electrostatic) potential at core
  the test charge radii are     1.0210  1.4024
  (the norm of the test charge is              1.0000)
       1 -47.0280       2 -47.0278       3 -47.0279       4 -47.0282       5 -63.3970
       6 -63.3349       7 -63.3970       8 -63.3349
 
 
 
 E-fermi :   2.8323     XC(G=0):  -8.7802     alpha+bet : -8.1043


 spin component 1

 k-point     1 :       0.0000    0.0000    0.0000
  band No.  band energies     occupation 
      1      -8.1052      1.00000
      2      -7.6953      1.00000
      3      -7.6431      1.00000
      4      -7.1343      1.00000
      5      -0.8781      1.00000
      6      -0.3289      1.00000
      7      -0.2521      1.00000
      8      -0.1415      1.00000
      9      -0.1415      1.00000
     10       0.0836      1.00000
     11       0.0837      1.00000
     12       0.2971      1.00000
     13       0.3391      1.00000
     14       0.3580      1.00000
     15       0.5084      1.00000
     16       1.0474      1.00000
     17       1.5754      1.00000
     18       1.7544      1.00000
     19       1.7544      1.00000
     20       1.7949      1.00000
     21       1.7949      1.00000
     22       2.8142      0.65040
     23       2.8142      0.65035
     24       3.2533     -0.00000
     25       3.7032     -0.00000
     26       4.0572     -0.00000
     27       4.0760     -0.00000
     28       4.1137     -0.00000
     29       4.1252     -0.00000

 k-point     2 :       0.3333   -0.0000    0.0000
  band No.  band energies     occupation 
      1      -7.7319      1.00000
      2      -7.4909      1.00000
      3      -7.4370      1.00000
      4      -7.1893      1.00000
      5      -0.6023      1.00000
      6      -0.5801      1.00000
      7      -0.3081      1.00000
      8      -0.1826      1.00000
      9      -0.1104      1.00000
     10       0.0027      1.00000
     11       0.0486      1.00000
     12       0.0722      1.00000
     13       0.2070      1.00000
     14       0.3468      1.00000
     15       0.3765      1.00000
     16       0.5045      1.00000
     17       0.7210      1.00000
     18       0.9616      1.00000
     19       1.4211      1.00000
     20       1.8844      1.00000
     21       1.9071      1.00000
     22       2.1614      1.00000
     23       2.7766      0.89987
     24       3.0823     -0.00116
     25       3.2449     -0.00000
     26       3.8212     -0.00000
     27       3.8686     -0.00000
     28       3.9527     -0.00000
     29       4.0037     -0.00000

 k-point     3 :       0.0000   -0.0000    0.3333
  band No.  band energies     occupation 
      1      -7.7319      1.00000
      2      -7.4909      1.00000
      3      -7.4370      1.00000
      4      -7.1893      1.00000
      5      -0.6023      1.00000
      6      -0.5801      1.00000
      7      -0.3081      1.00000
      8      -0.1826      1.00000
      9      -0.1105      1.00000
     10       0.0027      1.00000
     11       0.0487      1.00000
     12       0.0723      1.00000
     13       0.2069      1.00000
     14       0.3469      1.00000
     15       0.3765      1.00000
     16       0.5045      1.00000
     17       0.7209      1.00000
     18       0.9616      1.00000
     19       1.4211      1.00000
     20       1.8845      1.00000
     21       1.9071      1.00000
     22       2.1613      1.00000
     23       2.7765      0.89991
     24       3.0824     -0.00115
     25       3.2449     -0.00000
     26       3.8212     -0.00000
     27       3.8687     -0.00000
     28       3.9527     -0.00000
     29       4.0036     -0.00000

 k-point     4 :       0.3333   -0.0000    0.3333
  band No.  band energies     occupation 
      1      -7.4500      1.00000
      2      -7.2924      1.00000
      3      -7.2457      1.00000
      4      -7.1140      1.00000
      5      -0.6868      1.00000
      6      -0.5930      1.00000
      7      -0.2560      1.00000
      8      -0.1052      1.00000
      9       0.0018      1.00000
     10       0.0095      1.00000
     11       0.0298      1.00000
     12       0.2995      1.00000
     13       0.3042      1.00000
     14       0.3278      1.00000
     15       0.4463      1.00000
     16       0.5734      1.00000
     17       0.5863      1.00000
     18       1.0070      1.00000
     19       1.0914      1.00000
     20       1.4378      1.00000
     21       1.6059      1.00000
     22       1.6430      1.00000
     23       2.1097      1.00000
     24       2.3364      1.00000
     25       2.6366      1.00916
     26       2.8303      0.51709
     27       3.5855     -0.00000
     28       3.6802     -0.00000
     29       3.8305     -0.00000

 k-point     5 :      -0.3333    0.0000    0.3333
  band No.  band energies     occupation 
      1      -7.4500      1.00000
      2      -7.2924      1.00000
      3      -7.2457      1.00000
      4      -7.1140      1.00000
      5      -0.6868      1.00000
      6      -0.5930      1.00000
      7      -0.2560      1.00000
      8      -0.1052      1.00000
      9       0.0018      1.00000
     10       0.0095      1.00000
     11       0.0298      1.00000
     12       0.2995      1.00000
     13       0.3042      1.00000
     14       0.3278      1.00000
     15       0.4463      1.00000
     16       0.5734      1.00000
     17       0.5863      1.00000
     18       1.0070      1.00000
     19       1.0914      1.00000
     20       1.4378      1.00000
     21       1.6059      1.00000
     22       1.6430      1.00000
     23       2.1097      1.00000
     24       2.3364      1.00000
     25       2.6366      1.00916
     26       2.8303      0.51709
     27       3.5855     -0.00000
     28       3.6802     -0.00000
     29       3.8304     -0.00000

 spin component 2

 k-point     1 :       0.0000    0.0000    0.0000
  band No.  band energies     occupation 
      1      -8.1051      1.00000
      2      -7.6953      1.00000
      3      -7.6431      1.00000
      4      -7.1342      1.00000
      5      -0.8781      1.00000
      6      -0.3289      1.00000
      7      -0.2521      1.00000
      8      -0.1416      1.00000
      9      -0.1416      1.00000
     10       0.0836      1.00000
     11       0.0836      1.00000
     12       0.2970      1.00000
     13       0.3391      1.00000
     14       0.3579      1.00000
     15       0.5084      1.00000
     16       1.0475      1.00000
     17       1.5755      1.00000
     18       1.7545      1.00000
     19       1.7545      1.00000
     20       1.7950      1.00000
     21       1.7950      1.00000
     22       2.8142      0.65029
     23       2.8142      0.65004
     24       3.2534     -0.00000
     25       3.7034     -0.00000
     26       4.0571     -0.00000
     27       4.0680     -0.00000
     28       4.0808     -0.00000
     29       4.1295     -0.00000

 k-point     2 :       0.3333   -0.0000    0.0000
  band No.  band energies     occupation 
      1      -7.7318      1.00000
      2      -7.4908      1.00000
      3      -7.4370      1.00000
      4      -7.1893      1.00000
      5      -0.6023      1.00000
      6      -0.5801      1.00000
      7      -0.3081      1.00000
      8      -0.1826      1.00000
      9      -0.1106      1.00000
     10       0.0027      1.00000
     11       0.0486      1.00000
     12       0.0722      1.00000
     13       0.2068      1.00000
     14       0.3468      1.00000
     15       0.3764      1.00000
     16       0.5045      1.00000
     17       0.7209      1.00000
     18       0.9617      1.00000
     19       1.4211      1.00000
     20       1.8846      1.00000
     21       1.9072      1.00000
     22       2.1613      1.00000
     23       2.7766      0.89968
     24       3.0824     -0.00115
     25       3.2449     -0.00000
     26       3.8213     -0.00000
     27       3.8687     -0.00000
     28       3.9528     -0.00000
     29       4.0037     -0.00000

 k-point     3 :       0.0000   -0.0000    0.3333
  band No.  band energies     occupation 
      1      -7.7318      1.00000
      2      -7.4908      1.00000
      3      -7.4370      1.00000
      4      -7.1893      1.00000
      5      -0.6023      1.00000
      6      -0.5801      1.00000
      7      -0.3081      1.00000
      8      -0.1826      1.00000
      9      -0.1105      1.00000
     10       0.0027      1.00000
     11       0.0485      1.00000
     12       0.0722      1.00000
     13       0.2070      1.00000
     14       0.3467      1.00000
     15       0.3764      1.00000
     16       0.5044      1.00000
     17       0.7210      1.00000
     18       0.9617      1.00000
     19       1.4211      1.00000
     20       1.8846      1.00000
     21       1.9072      1.00000
     22       2.1614      1.00000
     23       2.7766      0.89969
     24       3.0823     -0.00116
     25       3.2449     -0.00000
     26       3.8213     -0.00000
     27       3.8687     -0.00000
     28       3.9528     -0.00000
     29       4.0038     -0.00000

 k-point     4 :       0.3333   -0.0000    0.3333
  band No.  band energies     occupation 
      1      -7.4499      1.00000
      2      -7.2924      1.00000
      3      -7.2457      1.00000
      4      -7.1139      1.00000
      5      -0.6868      1.00000
      6      -0.5930      1.00000
      7      -0.2560      1.00000
      8      -0.1052      1.00000
      9       0.0017      1.00000
     10       0.0096      1.00000
     11       0.0298      1.00000
     12       0.2994      1.00000
     13       0.3041      1.00000
     14       0.3277      1.00000
     15       0.4463      1.00000
     16       0.5734      1.00000
     17       0.5862      1.00000
     18       1.0069      1.00000
     19       1.0915      1.00000
     20       1.4378      1.00000
     21       1.6060      1.00000
     22       1.6431      1.00000
     23       2.1098      1.00000
     24       2.3364      1.00000
     25       2.6366      1.00917
     26       2.8303      0.51705
     27       3.5856     -0.00000
     28       3.6803     -0.00000
     29       3.8305     -0.00000

 k-point     5 :      -0.3333    0.0000    0.3333
  band No.  band energies     occupation 
      1      -7.4499      1.00000
      2      -7.2924      1.00000
      3      -7.2457      1.00000
      4      -7.1139      1.00000
      5      -0.6868      1.00000
      6      -0.5930      1.00000
      7      -0.2560      1.00000
      8      -0.1052      1.00000
      9       0.0017      1.00000
     10       0.0096      1.00000
     11       0.0298      1.00000
     12       0.2994      1.00000
     13       0.3041      1.00000
     14       0.3277      1.00000
     15       0.4463      1.00000
     16       0.5734      1.00000
     17       0.5862      1.00000
     18       1.0069      1.00000
     19       1.0915      1.00000
     20       1.4378      1.00000
     21       1.6060      1.00000
     22       1.6431      1.00000
     23       2.1098      1.00000
     24       2.3364      1.00000
     25       2.6366      1.00917
     26       2.8303      0.51705
     27       3.5856     -0.00000
     28       3.6803     -0.00000
     29       3.8305     -0.00000


--------------------------------------------------------------------------------------------------------


 soft charge-density along one line, spin component           1
         0         1         2         3         4         5         6         7         8         9
 total charge-density along one line
 
 soft charge-density along one line, spin component           2
         0         1         2         3         4         5         6         7         8         9
 total charge-density along one line
 
 pseudopotential strength for first ion, spin component:           1
 -8.417  -0.000   0.000   0.033  -0.000  -8.933  -0.000   0.000
 -0.000  -8.410  -0.020  -0.000   0.063  -0.000  -8.926  -0.020
  0.000  -0.020  -8.359  -0.000  -0.004   0.000  -0.020  -8.876
  0.033  -0.000  -0.000  -8.440  -0.000   0.033  -0.000  -0.000
 -0.000   0.063  -0.004  -0.000  -8.408  -0.000   0.062  -0.004
 -8.933  -0.000   0.000   0.033  -0.000  -9.425  -0.000   0.000
 -0.000  -8.926  -0.020  -0.000   0.062  -0.000  -9.418  -0.019
  0.000  -0.020  -8.876  -0.000  -0.004   0.000  -0.019  -9.369
  0.033  -0.000  -0.000  -8.956  -0.000   0.032  -0.000  -0.000
 -0.000   0.062  -0.004  -0.000  -8.924  -0.000   0.061  -0.004
  0.000   0.007  -0.003   0.000   0.001   0.000   0.007  -0.003
  0.000   0.013  -0.006   0.000   0.001   0.000   0.013  -0.006
 -0.000   0.006   0.000   0.000   0.010  -0.000   0.006   0.000
  0.000  -0.000  -0.011  -0.000   0.000   0.000  -0.000  -0.011
  0.009   0.000   0.000   0.006  -0.000   0.008   0.000   0.000
 -0.000   0.007   0.000   0.000   0.011  -0.000   0.007   0.000
  0.000  -0.000  -0.013  -0.000  -0.000   0.000  -0.000  -0.013
  0.010   0.000   0.000   0.007  -0.000   0.010   0.000   0.000
 pseudopotential strength for first ion, spin component:           2
 -6.178   0.000   0.000  -0.083   0.000  -6.736   0.000   0.000
  0.000  -6.127   0.010   0.000  -0.069   0.000  -6.686   0.010
  0.000   0.010  -6.219  -0.000   0.024   0.000   0.010  -6.777
 -0.083   0.000  -0.000  -6.119  -0.000  -0.082   0.000  -0.000
  0.000  -0.069   0.024  -0.000  -6.194   0.000  -0.069   0.024
 -6.736   0.000   0.000  -0.082   0.000  -7.270   0.000   0.000
  0.000  -6.686   0.010   0.000  -0.069   0.000  -7.220   0.010
  0.000   0.010  -6.777  -0.000   0.024   0.000   0.010  -7.311
 -0.082   0.000  -0.000  -6.678  -0.000  -0.081   0.000  -0.000
  0.000  -0.069   0.024  -0.000  -6.753   0.000  -0.068   0.024
 -0.000  -0.000  -0.002  -0.000   0.004  -0.000  -0.000  -0.002
 -0.000  -0.001  -0.005  -0.000   0.009  -0.000  -0.001  -0.005
 -0.000  -0.005   0.000  -0.000  -0.004  -0.000  -0.005   0.000
 -0.000  -0.001   0.006  -0.000   0.001  -0.000  -0.001   0.006
 -0.005  -0.000   0.000  -0.003  -0.000  -0.005  -0.000   0.000
 -0.000  -0.006   0.000  -0.000  -0.006  -0.000  -0.006   0.000
 -0.000  -0.001   0.009  -0.000   0.001  -0.000  -0.001   0.008
 -0.007  -0.000   0.000  -0.005  -0.000  -0.007  -0.000   0.000
 total augmentation occupancy for first ion, spin component:           1
  2.704   0.000  -0.000  -0.044   0.000  -1.258  -0.000   0.000  -0.066  -0.000  -0.000   0.000  -0.000  -0.000  -0.121   0.000
  0.000   2.796  -0.005   0.000  -0.046  -0.000  -1.252  -0.001  -0.000  -0.060  -0.054   0.010  -0.107  -0.008  -0.000   0.004
 -0.000  -0.005   2.665  -0.000   0.095   0.000  -0.003  -1.301   0.000  -0.067   0.025  -0.009  -0.003   0.164  -0.000   0.000
 -0.044   0.000  -0.000   2.735   0.000  -0.066  -0.000  -0.000  -1.212  -0.000   0.000  -0.000   0.000  -0.000  -0.086  -0.000
  0.000  -0.046   0.095   0.000   2.585  -0.000  -0.058  -0.068   0.000  -1.182  -0.005   0.008  -0.123   0.009  -0.000   0.006
 -1.258  -0.000   0.000  -0.066  -0.000   0.958   0.000  -0.000   0.217   0.000   0.000  -0.000   0.000   0.000   0.178   0.000
 -0.000  -1.252  -0.003  -0.000  -0.058   0.000   0.856  -0.012   0.000   0.218   0.019  -0.002   0.141   0.006   0.000  -0.006
  0.000  -0.001  -1.301  -0.000  -0.068  -0.000  -0.012   1.119  -0.000   0.034   0.001   0.002  -0.000  -0.228   0.000  -0.000
 -0.066  -0.000   0.000  -1.212   0.000   0.217   0.000  -0.000   0.805  -0.000  -0.000   0.000  -0.000   0.000   0.126   0.000
 -0.000  -0.060  -0.067  -0.000  -1.182   0.000   0.218   0.034  -0.000   0.921  -0.014  -0.003   0.180  -0.004   0.000  -0.008
 -0.000  -0.054   0.025   0.000  -0.005   0.000   0.019   0.001  -0.000  -0.014   1.578  -0.097  -0.002  -0.001  -0.000   0.000
  0.000   0.010  -0.009  -0.000   0.008  -0.000  -0.002   0.002   0.000  -0.003  -0.097   0.017   0.001   0.001   0.000  -0.000
 -0.000  -0.107  -0.003   0.000  -0.123   0.000   0.141  -0.000  -0.000   0.180  -0.002   0.001   0.118   0.002   0.000  -0.005
 -0.000  -0.008   0.164  -0.000   0.009   0.000   0.006  -0.228   0.000  -0.004  -0.001   0.001   0.002   0.117  -0.000  -0.000
 -0.121  -0.000  -0.000  -0.086  -0.000   0.178   0.000   0.000   0.126   0.000  -0.000   0.000   0.000  -0.000   0.112   0.000
  0.000   0.004   0.000  -0.000   0.006   0.000  -0.006  -0.000   0.000  -0.008   0.000  -0.000  -0.005  -0.000   0.000   0.000
 -0.000  -0.000  -0.007   0.000  -0.000   0.000   0.000   0.010  -0.000  -0.000   0.000  -0.000  -0.000  -0.005   0.000   0.000
  0.005  -0.000   0.000   0.004   0.000  -0.008   0.000  -0.000  -0.006  -0.000   0.000  -0.000   0.000   0.000  -0.005  -0.000
 total augmentation occupancy for first ion, spin component:           2
  2.471   0.000  -0.000  -0.149   0.000  -0.887  -0.000   0.000   0.095  -0.000  -0.000   0.000   0.000  -0.000  -0.023  -0.000
  0.000   2.633  -0.007   0.000  -0.151  -0.000  -1.006   0.015   0.000   0.085  -0.033   0.009  -0.045  -0.008  -0.000  -0.000
 -0.000  -0.007   2.349  -0.000   0.098   0.000   0.020  -0.820   0.000  -0.063   0.001  -0.008  -0.004   0.055   0.000   0.000
 -0.149   0.000  -0.000   2.576   0.000   0.095   0.000  -0.000  -0.955  -0.000  -0.000  -0.000   0.000   0.000  -0.017  -0.000
  0.000  -0.151   0.098   0.000   2.340  -0.000   0.078  -0.060   0.000  -0.799   0.021   0.007  -0.033   0.010   0.000  -0.000
 -0.887  -0.000   0.000   0.095  -0.000   0.193   0.000  -0.000  -0.128   0.000   0.000  -0.000   0.000   0.000  -0.024   0.000
 -0.000  -1.006   0.020   0.000   0.078   0.000   0.301  -0.005  -0.000  -0.117   0.035  -0.002   0.007   0.007   0.000   0.001
  0.000   0.015  -0.820  -0.000  -0.060  -0.000  -0.005   0.098  -0.000   0.048  -0.016   0.002   0.004   0.007  -0.000  -0.000
  0.095   0.000   0.000  -0.955   0.000  -0.128  -0.000  -0.000   0.284  -0.000   0.000   0.000  -0.000  -0.000  -0.017  -0.000
 -0.000   0.085  -0.063  -0.000  -0.799   0.000  -0.117   0.048  -0.000   0.123   0.003  -0.003  -0.017  -0.010  -0.000   0.001
 -0.000  -0.033   0.001  -0.000   0.021   0.000   0.035  -0.016   0.000   0.003  -0.082   0.085   0.005   0.004   0.000   0.000
  0.000   0.009  -0.008  -0.000   0.007  -0.000  -0.002   0.002   0.000  -0.003   0.085  -0.007   0.001   0.000  -0.000  -0.000
  0.000  -0.045  -0.004   0.000  -0.033   0.000   0.007   0.004  -0.000  -0.017   0.005   0.001   0.014   0.002   0.000   0.000
 -0.000  -0.008   0.055   0.000   0.010   0.000   0.007   0.007  -0.000  -0.010   0.004   0.000   0.002   0.013   0.000   0.000
 -0.023  -0.000   0.000  -0.017   0.000  -0.024   0.000  -0.000  -0.017  -0.000   0.000  -0.000   0.000   0.000   0.010   0.000
 -0.000  -0.000   0.000  -0.000  -0.000   0.000   0.001  -0.000  -0.000   0.001   0.000  -0.000   0.000   0.000   0.000  -0.000
  0.000  -0.000   0.000   0.000  -0.000  -0.000   0.000  -0.001  -0.000   0.000   0.000  -0.000   0.000   0.000   0.000  -0.000
 -0.001  -0.000   0.000  -0.001   0.000   0.002   0.000   0.000   0.001  -0.000   0.000   0.000   0.000   0.000   0.000  -0.000


------------------------ aborting loop because EDIFF is reached ----------------------------------------


 


 total charge     
 
# of ion       s       p       d       tot
------------------------------------------
    1        0.308   0.198   4.960   5.466
    2        0.308   0.198   4.959   5.466
    3        0.308   0.198   4.959   5.466
    4        0.308   0.198   4.959   5.466
    5        1.680   2.233   0.060   3.972
    6        1.677   2.235   0.065   3.977
    7        1.680   2.233   0.060   3.972
    8        1.677   2.235   0.065   3.977
--------------------------------------------------
tot          7.946   9.729  20.087  37.762
 


 magnetization (x)
 
# of ion       s       p       d       tot
------------------------------------------
    1        0.051   0.024   3.709   3.784
    2        0.051   0.024   3.709   3.784
    3       -0.051  -0.024  -3.709  -3.784
    4       -0.051  -0.024  -3.709  -3.784
    5        0.001   0.365  -0.031   0.335
    6        0.000   0.000   0.000   0.000
    7       -0.001  -0.365   0.031  -0.335
    8        0.000   0.000   0.000   0.000
--------------------------------------------------
tot          0.000   0.000  -0.000   0.000
 
    CHARGE:  cpu time    0.0717: real time    0.0719
    FORLOC:  cpu time    0.0074: real time    0.0074
    FORNL :  cpu time    0.2771: real time    0.2777
    STRESS:  cpu time    0.4041: real time    0.4050
    FORCOR:  cpu time    0.1646: real time    0.1650
    FORHAR:  cpu time    0.0215: real time    0.0215
    MIXING:  cpu time    0.0054: real time    0.0054
    OFIELD:  cpu time    0.0000: real time    0.0000

  FORCE on cell =-STRESS in cart. coord.  units (eV):
  Direction    XX          YY          ZZ          XY          YZ          ZX
  --------------------------------------------------------------------------------------
  Alpha Z    67.66360    67.66360    67.66360
  Ewald    -596.40001  -596.40006  -596.40012     0.00002     0.00002     0.00001
  Hartree   201.24880   200.86030   201.05453     0.00003    -0.27470     0.00001
  E(xc)    -227.41654  -227.27477  -227.34563    -0.00000     0.10021     0.00000
  Local    -102.73103  -102.25019  -102.49033    -0.00008     0.33967    -0.00003
  n-local   218.48097   219.32614   218.90345     0.00003     0.59775     0.00002
  augment    16.83734    16.18520    16.51130    -0.00001    -0.46118    -0.00000
  Kinetic   421.52484   421.20376   421.36410    -0.00000    -0.22675    -0.00002
  Fock        0.00000     0.00000     0.00000     0.00000     0.00000     0.00000
  -------------------------------------------------------------------------------------
  Total      -0.79202    -0.68602    -0.73909    -0.00002     0.07503    -0.00000
  in kB      -4.92154    -4.26289    -4.59265    -0.00012     0.46624    -0.00002
  external pressure =       -4.59 kB  Pullay stress =        0.00 kB


 VOLUME and BASIS-vectors are now :
 -----------------------------------------------------------------------------
  energy-cutoff  :      500.00
  volume of cell :      257.84
      direct lattice vectors                 reciprocal lattice vectors
     4.500557900  0.000000000  0.000000000     0.222194675  0.000000003  0.000000002
    -0.000000200 10.393593400  7.349380200     0.000000000  0.064142077  0.045355298
     0.000000000 -2.598398300  3.674690100     0.000000000 -0.128284155  0.181421195

  length of vectors
     4.500557900 12.729500111  4.500557861     0.222194675  0.078557680  0.222194677


 FORCES acting on ions
    electron-ion (+dipol)            ewald-force                    non-local-force                 convergence-correction
 -----------------------------------------------------------------------------------------------
   0.135E-04 0.245E-01 0.173E-01   -.285E-05 -.236E-05 -.198E-05   -.163E-06 -.478E-01 -.338E-01   -.958E-05 0.218E-02 0.155E-02
   0.169E-04 -.264E-01 -.187E-01   -.285E-05 -.236E-05 -.198E-05   -.835E-05 0.477E-01 0.338E-01   -.932E-05 -.298E-03 -.195E-03
   0.793E-05 0.276E-01 0.195E-01   -.285E-05 -.236E-05 -.198E-05   0.302E-05 -.479E-01 -.339E-01   -.645E-05 -.878E-03 -.621E-03
   0.102E-04 -.256E-01 -.181E-01   -.285E-05 -.236E-05 -.198E-05   -.105E-04 0.479E-01 0.339E-01   0.194E-05 -.109E-02 -.762E-03
   -.102E-04 0.133E-02 0.932E-03   0.285E-05 0.236E-05 0.198E-05   0.536E-05 -.136E-03 -.893E-04   0.160E-05 -.116E-02 -.819E-03
   -.128E-04 -.632E-03 -.444E-03   0.285E-05 0.236E-05 0.198E-05   0.545E-05 -.834E-05 -.958E-05   0.169E-05 0.596E-03 0.422E-03
   -.122E-04 -.118E-02 -.804E-03   0.285E-05 0.236E-05 0.198E-05   0.552E-05 -.530E-04 -.550E-04   0.416E-05 0.125E-02 0.872E-03
   -.167E-04 0.608E-03 0.432E-03   0.285E-05 0.236E-05 0.198E-05   0.717E-05 0.103E-03 0.691E-04   0.578E-05 -.678E-03 -.478E-03
 -----------------------------------------------------------------------------------------------
   -.350E-05 0.278E-03 0.189E-03   -.768E-15 -.170E-13 -.520E-14   0.748E-05 -.189E-03 -.144E-03   -.102E-04 -.782E-04 -.321E-04
 
 
 POSITION                                       TOTAL-FORCE (eV/Angst)
 -----------------------------------------------------------------------------------
      2.25028      3.89760      2.75602         0.000002     -0.021063     -0.014894
     -0.00000      5.19680      6.43071        -0.000003      0.021051      0.014885
      2.25028      9.09439      6.43071         0.000002     -0.021184     -0.014978
      0.00000      0.00000      2.75602        -0.000001      0.021156      0.014958
      0.00000      0.00000      0.00000         0.000000      0.000034      0.000024
      2.25028      1.29920      3.67469        -0.000002     -0.000043     -0.000031
     -0.00000      5.19680      3.67469         0.000001      0.000015      0.000014
      2.25028      6.49600      7.34938        -0.000000      0.000034      0.000024
 -----------------------------------------------------------------------------------
    total drift:                               -0.000006      0.000010      0.000014


--------------------------------------------------------------------------------------------------------



  FREE ENERGIE OF THE ION-ELECTRON SYSTEM (eV)
  ---------------------------------------------------
  free  energy   TOTEN  =       -46.12515813 eV

  energy  without entropy=      -46.10556713  energy(sigma->0) =      -46.11862780
 


--------------------------------------------------------------------------------------------------------


    POTLOK:  cpu time    0.1658: real time    0.1662


--------------------------------------------------------------------------------------------------------


     LOOP+:  cpu time   23.1277: real time   23.1943
    4ORBIT:  cpu time    0.0000: real time    0.0000
 


 total charge     
 
# of ion       s       p       d       tot
------------------------------------------
    1        0.308   0.198   4.960   5.466
    2        0.308   0.198   4.959   5.466
    3        0.308   0.198   4.959   5.466
    4        0.308   0.198   4.959   5.466
    5        1.680   2.233   0.060   3.972
    6        1.677   2.235   0.065   3.977
    7        1.680   2.233   0.060   3.972
    8        1.677   2.235   0.065   3.977
--------------------------------------------------
tot          7.946   9.729  20.087  37.762
 


 magnetization (x)
 
# of ion       s       p       d       tot
------------------------------------------
    1        0.051   0.024   3.709   3.784
    2        0.051   0.024   3.709   3.784
    3       -0.051  -0.024  -3.709  -3.784
    4       -0.051  -0.024  -3.709  -3.784
    5        0.001   0.365  -0.031   0.335
    6        0.000   0.000   0.000   0.000
    7       -0.001  -0.365   0.031  -0.335
    8        0.000   0.000   0.000   0.000
--------------------------------------------------
tot          0.000   0.000  -0.000   0.000
 

 total amount of memory used by VASP MPI-rank0    51603. kBytes
=======================================================================

   base      :      30000. kBytes
   nonl-proj :       1290. kBytes
   fftplans  :       4808. kBytes
   grid      :      11572. kBytes
   one-center:         31. kBytes
   wavefun   :       3902. kBytes
 
  
  
 General timing and accounting informations for this job:
 ========================================================
  
                  Total CPU time used (sec):       23.976
                            User time (sec):       23.861
                          System time (sec):        0.116
                         Elapsed time (sec):       24.142
  
                   Maximum memory used (kb):       87056.
                   Average memory used (kb):           0.
  
                          Minor page faults:        40606
                          Major page faults:            0
                 Voluntary context switches:          122
