=========================================
SLURM_JOB_ID = 29456379
SLURM_JOB_NODELIST = lnode28
SLURM_GPUS = 
SLURM_CPUS_ON_NODE = 8
SLURM_JOB_PARTITION = lenovo
SLURM_TASK_PID = 715440
CUDA_VISIBLE_DEVICES = 
==========================================
 running on    8 total cores
 distrk:  each k-point on    8 cores,    1 groups
 distr:  one band on    8 cores,    1 groups
 using from now: INCAR     
 vasp.5.4.4.18Apr17-6-g9f103f2a35 (build Apr 28 2018 00:24:27) complex          
  
 POSCAR found type information on POSCAR  Mn Bi
 POSCAR found :  2 types and      12 ions
 scaLAPACK will be used

 ----------------------------------------------------------------------------- 
|                                                                             |
|           W    W    AA    RRRRR   N    N  II  N    N   GGGG   !!!           |
|           W    W   A  A   R    R  NN   N  II  NN   N  G    G  !!!           |
|           W    W  A    A  R    R  N N  N  II  N N  N  G       !!!           |
|           W WW W  AAAAAA  RRRRR   N  N N  II  N  N N  G  GGG   !            |
|           WW  WW  A    A  R   R   N   NN  II  N   NN  G    G                |
|           W    W  A    A  R    R  N    N  II  N    N   GGGG   !!!           |
|                                                                             |
|      For optimal performance we recommend to set                            |
|        NCORE= 4 - approx SQRT( number of cores)                             |
|      NCORE specifies how many cores store one orbital (NPAR=cpu/NCORE).     |
|      This setting can  greatly improve the performance of VASP for DFT.     |
|      The default,   NCORE=1            might be grossly inefficient         |
|      on modern multi-core architectures or massively parallel machines.     |
|      Do your own testing !!!!                                               |
|      Unfortunately you need to use the default for GW and RPA calculations. |
|      (for HF NCORE is supported but not extensively tested yet)             |
|                                                                             |
 ----------------------------------------------------------------------------- 

 LDA part: xc-table for Pade appr. of Perdew
 POSCAR, INCAR and KPOINTS ok, starting setup
 FFT: planning ...
 WAVECAR not read
 entering main loop
       N       E                     dE             d eps       ncg     rms          rms(c)
DAV:   1     0.550315148040E+03    0.55032E+03   -0.23730E+04290336   0.140E+03
DAV:   2     0.214600145640E+02   -0.52886E+03   -0.51781E+03290712   0.395E+02
DAV:   3    -0.652044093181E+02   -0.86664E+02   -0.83372E+02479159   0.149E+02
DAV:   4    -0.744982563292E+02   -0.92938E+01   -0.90707E+01509044   0.614E+01
DAV:   5    -0.751290020456E+02   -0.63075E+00   -0.62241E+00481592   0.161E+01    0.236E+01
DAV:   6    -0.855324059943E+02   -0.10403E+02   -0.27661E+02532428   0.157E+02    0.565E+01
DAV:   7    -0.679883365046E+02    0.17544E+02   -0.11583E+02501998   0.867E+01    0.113E+01
DAV:   8    -0.692341214954E+02   -0.12458E+01   -0.22185E+01532192   0.497E+01    0.119E+01
DAV:   9    -0.687225682968E+02    0.51155E+00   -0.89164E+00535237   0.297E+01    0.503E+00
DAV:  10    -0.687555738243E+02   -0.33006E-01   -0.21501E+00526853   0.161E+01    0.394E+00
DAV:  11    -0.686823852804E+02    0.73189E-01   -0.73236E-01518705   0.117E+01    0.207E+00
DAV:  12    -0.687087373144E+02   -0.26352E-01   -0.19939E-01503992   0.390E+00    0.153E+00
DAV:  13    -0.687153905646E+02   -0.66533E-02   -0.77300E-02528382   0.387E+00    0.103E+00
DAV:  14    -0.687176924665E+02   -0.23019E-02   -0.33506E-02505409   0.246E+00    0.413E-01
DAV:  15    -0.687188376554E+02   -0.11452E-02   -0.12610E-02502494   0.148E+00    0.201E-01
DAV:  16    -0.687189899256E+02   -0.15227E-03   -0.39541E-03495510   0.861E-01    0.155E-01
DAV:  17    -0.687190312288E+02   -0.41303E-04   -0.86756E-04465046   0.458E-01    0.706E-02
DAV:  18    -0.687190378374E+02   -0.66086E-05   -0.34102E-04517616   0.210E-01    0.375E-02
DAV:  19    -0.687190505463E+02   -0.12709E-04   -0.79660E-05509110   0.108E-01    0.241E-02
DAV:  20    -0.687190568107E+02   -0.62645E-05   -0.27809E-05510664   0.826E-02    0.171E-02
DAV:  21    -0.687190607284E+02   -0.39177E-05   -0.19866E-05462848   0.609E-02    0.930E-03
DAV:  22    -0.687190621718E+02   -0.14434E-05   -0.53742E-06287760   0.371E-02    0.327E-03
DAV:  23    -0.687190631272E+02   -0.95539E-06   -0.22736E-06278024   0.114E-02
   1 F= -.68719063E+02 E0= -.68718139E+02  d E =-.277250E-02  mag=    -0.1083
