unknown system                          
   1.00000000000000     
     1.420026    1.420026    1.420026
     1.420026   -1.420026   -1.420026
    -1.420026    1.420026   -1.420026
   Fe
     1
Direct
  0.000000  0.000000  0.000000
 
   36   36   36
 0.55247099993E+03 0.85534119851E+03 0.12823524900E+03 0.17559698922E+03 0.22942495280E+03
 0.19554014011E+03 0.13706927150E+03 0.87968087790E+02 0.54575279699E+02 0.33795941209E+02
 0.21363445528E+02 0.14038587733E+02 0.97353465970E+01 0.71964110718E+01 0.56052966164E+01
 0.47795821227E+01 0.42618694019E+01 0.39840660866E+01 0.38972816115E+01 0.39840660866E+01
 0.42618694019E+01 0.47795821227E+01 0.56052966164E+01 0.71964110718E+01 0.97353465970E+01
 0.14038587733E+02 0.21363445528E+02 0.33795941209E+02 0.54575279699E+02 0.87968087790E+02
 0.13706927150E+03 0.19554014011E+03 0.22942495280E+03 0.17559698922E+03 0.12823524900E+03
 0.85534119851E+03 0.85534119851E+03 0.66391942906E+03 0.13870823100E+03 0.15382041996E+03
 0.22553903963E+03 0.20723558199E+03 0.15141831077E+03 0.99325860059E+02 0.62223854680E+02
 0.38583173851E+02 0.24259903496E+02 0.15766432989E+02 0.10762297260E+02 0.78082178811E+01
 0.60523109385E+01 0.49848287271E+01 0.43821026250E+01 0.40368423163E+01 0.38924977427E+01
 0.39207727802E+01 0.41274515704E+01 0.45513073757E+01 0.52554650536E+01 0.65409879242E+01
 0.86279254247E+01 0.12148081504E+02 0.18119141063E+02 0.28244233286E+02 0.45234388818E+02
 0.72929856263E+02 0.11521322800E+03 0.17097922238E+03 0.22087590152E+03 0.21294155202E+03
 0.12269775178E+03 0.24818480982E+03 0.12823524900E+03 0.13870823100E+03 0.10034744754E+03
 0.16544880979E+03 0.22188802966E+03 0.20642973277E+03 0.15528612099E+03 0.10444107310E+03
 0.66587123838E+02 0.41721003807E+02 0.26337728411E+02 0.17084545165E+02 0.11579096218E+02
 0.83072470634E+01 0.63539553297E+01 0.51481395121E+01 0.44769148157E+01 0.40737604403E+01
 0.38775561446E+01 0.38510520366E+01 0.39887488575E+01 0.43178971125E+01 0.48932033188E+01
 0.58994025213E+01 0.75493000342E+01 0.10306541348E+02 0.14941634662E+02 0.22742940741E+02
 0.35782667045E+02 0.57126105757E+02 0.90474364438E+02 0.13778907031E+03 0.19220860207E+03
 0.22633440003E+03 0.19732256418E+03 0.12269775178E+03 0.17559698922E+03 0.15382041996E+03
 0.16544880979E+03 0.20199645174E+03 0.21913771161E+03 0.19494170570E+03 0.14830966828E+03
 0.10218144133E+03 0.66675402737E+02 0.42551711622E+02 0.27205579549E+02 0.17771013859E+02
 0.12062909396E+02 0.86270752490E+01 0.65547740684E+01 0.52525615278E+01 0.45355091457E+01
 0.40891146477E+01 0.38509048153E+01 0.37773282422E+01 0.38530953137E+01 0.40937922491E+01
 0.45433106170E+01 0.52645338908E+01 0.65734436726E+01 0.86561652280E+01 0.12109670196E+02
 0.17849291845E+02 0.27342712317E+02 0.42803423686E+02 0.67158117134E+02 0.10314063351E+03
 0.15025166832E+03 0.19882182876E+03 0.22633440003E+03 0.21294155202E+03 0.22942495280E+03
 0.22553903963E+03 0.22188802966E+03 0.21913771161E+03 0.20505356127E+03 0.17340371357E+03
 0.13228807194E+03 0.93253363774E+02 0.62520514836E+02 0.40904465270E+02 0.26689999769E+02
 0.17699916536E+02 0.12132792744E+02 0.87180486075E+01 0.66267373665E+01 0.52859230309E+01
 0.45494564149E+01 0.40779969598E+01 0.38106197069E+01 0.37004728850E+01 0.37247987823E+01
 0.38885882923E+01 0.42239562719E+01 0.47847670540E+01 0.57377432168E+01 0.72657083082E+01
 0.97568785884E+01 0.13826659315E+02 0.20454148905E+02 0.31116184183E+02 0.47843550526E+02
 0.72925517364E+02 0.10774217903E+03 0.15025166832E+03 0.19220860207E+03 0.22087590152E+03
 0.19554014011E+03 0.20723558199E+03 0.20642973277E+03 0.19494170570E+03 0.17340371357E+03
 0.14356261330E+03 0.11041532798E+03 0.79770259532E+02 0.55123819304E+02 0.37158689598E+02
 0.24900311192E+02 0.16883273660E+02 0.11773824788E+02 0.85632208916E+01 0.65564979824E+01
 0.52428841686E+01 0.45143185719E+01 0.40374469120E+01 0.37551929485E+01 0.36203466141E+01
 0.36054418317E+01 0.37068699629E+01 0.39454502932E+01 0.43637998675E+01 0.50187481289E+01
 0.61474843647E+01 0.79009042977E+01 0.10708076741E+02 0.15190853590E+02 0.22278196136E+02
 0.33256976473E+02 0.49681647398E+02 0.72925517364E+02 0.10314063351E+03 0.13778907031E+03
 0.17097922238E+03 0.13706927150E+03 0.15141831077E+03 0.15528612099E+03 0.14830966828E+03
 0.13228807194E+03 0.11041532798E+03 0.86599070383E+02 0.64396297301E+02 0.46007433473E+02
 0.32075788802E+02 0.22182222370E+02 0.15466614842E+02 0.11043039508E+02 0.81825257850E+01
 0.63501493885E+01 0.51257991949E+01 0.44305836167E+01 0.39672888914E+01 0.36842858810E+01
 0.35365618869E+01 0.34947328996E+01 0.35490999963E+01 0.37108009615E+01 0.40108494223E+01
 0.44961986317E+01 0.52206874319E+01 0.64916166618E+01 0.83918528239E+01 0.11358210903E+02
 0.15950140254E+02 0.22935475265E+02 0.33256976473E+02 0.47843550526E+02 0.67158117134E+02
 0.90474364438E+02 0.11521322800E+03 0.87968087790E+02 0.99325860059E+02 0.10444107310E+03
 0.10218144133E+03 0.93253363774E+02 0.79770259532E+02 0.64396297301E+02 0.49509329779E+02
 0.36669514831E+02 0.26516000657E+02 0.18992844399E+02 0.13679114949E+02 0.10050394310E+02
 0.76279041142E+01 0.60319362355E+01 0.49442806991E+01 0.43037062993E+01 0.38704355872E+01
 0.35992231848E+01 0.34492128094E+01 0.33915787045E+01 0.34131269661E+01 0.35175831387E+01
 0.37254953167E+01 0.40725115732E+01 0.46046673449E+01 0.53687779494E+01 0.67224778028E+01
 0.86605705772E+01 0.11589577718E+02 0.15950140254E+02 0.22278196136E+02 0.31116184183E+02
 0.42803423686E+02 0.57126105757E+02 0.72929856263E+02 0.54575279699E+02 0.62223854680E+02
 0.66587123838E+02 0.66675402737E+02 0.62520514836E+02 0.55123819304E+02 0.46007433473E+02
 0.36669514831E+02 0.28207076674E+02 0.21194631448E+02 0.15763004972E+02 0.11764155844E+02
 0.89281596183E+01 0.69688775602E+01 0.56377507829E+01 0.47136415841E+01 0.41432745816E+01
 0.37525804468E+01 0.35030833017E+01 0.33593527649E+01 0.32950433907E+01 0.32957932725E+01
 0.33603563293E+01 0.35008447601E+01 0.37421739006E+01 0.41199857800E+01 0.46756570986E+01
 0.55423419008E+01 0.68038502067E+01 0.86605705772E+01 0.11358210903E+02 0.15190853590E+02
 0.20454148905E+02 0.27342712317E+02 0.35782667045E+02 0.45234388818E+02 0.33795941209E+02
 0.38583173851E+02 0.41721003807E+02 0.42551711622E+02 0.40904465270E+02 0.37158689598E+02
 0.32075788802E+02 0.26516000657E+02 0.21194631448E+02 0.16562422657E+02 0.12807388543E+02
 0.99238837773E+01 0.77979485252E+01 0.62759898538E+01 0.52078687016E+01 0.44525882431E+01
 0.39615245615E+01 0.36213669706E+01 0.34003648568E+01 0.32690994437E+01 0.32049524162E+01
 0.31942139582E+01 0.32328961490E+01 0.33270055375E+01 0.34925013690E+01 0.37546201229E+01
 0.41457036092E+01 0.47003388474E+01 0.55423419008E+01 0.67224778028E+01 0.83918528239E+01
 0.10708076741E+02 0.13826659315E+02 0.17849291845E+02 0.22742940741E+02 0.28244233286E+02
 0.21363445528E+02 0.24259903496E+02 0.26337728411E+02 0.27205579549E+02 0.26689999769E+02
 0.24900311192E+02 0.22182222370E+02 0.18992844399E+02 0.15763004972E+02 0.12807388543E+02
 0.10299939407E+02 0.82909749056E+01 0.67508445358E+01 0.56077171820E+01 0.47344670105E+01
 0.41806258340E+01 0.37715509892E+01 0.34852532470E+01 0.32963362139E+01 0.31813769421E+01
 0.31220488835E+01 0.31064933063E+01 0.31297574301E+01 0.31939310838E+01 0.33082504116E+01
 0.34890635245E+01 0.37591705474E+01 0.41457036092E+01 0.46756570986E+01 0.53687779494E+01
 0.64916166618E+01 0.79009042977E+01 0.97568785884E+01 0.12109670196E+02 0.14941634662E+02
 0.18119141063E+02 0.14038587733E+02 0.15766432989E+02 0.17084545165E+02 0.17771013859E+02
 0.17699916536E+02 0.16883273660E+02 0.15466614842E+02 0.13679114949E+02 0.11764155844E+02
 0.99238837773E+01 0.82909749056E+01 0.69275679126E+01 0.58404511417E+01 0.49294445815E+01
 0.43600982628E+01 0.39156279794E+01 0.35855838737E+01 0.33523455268E+01 0.31962598963E+01
 0.30994200673E+01 0.30477646761E+01 0.30318647242E+01 0.30470185185E+01 0.30931846335E+01
 0.31750373539E+01 0.33021537808E+01 0.34890635245E+01 0.37546201229E+01 0.41199857800E+01
 0.46046673449E+01 0.52206874319E+01 0.61474843647E+01 0.72657083082E+01 0.86561652280E+01
 0.10306541348E+02 0.12148081504E+02 0.97353465970E+01 0.10762297260E+02 0.11579096218E+02
 0.12062909396E+02 0.12132792744E+02 0.11773824788E+02 0.11043039508E+02 0.10050394310E+02
 0.89281596183E+01 0.77979485252E+01 0.67508445358E+01 0.58404511417E+01 0.50869163871E+01
 0.44601990278E+01 0.40179048505E+01 0.36719459415E+01 0.34136364835E+01 0.32294461427E+01
 0.31046981054E+01 0.30262268929E+01 0.29837799996E+01 0.29704126459E+01 0.29823331720E+01
 0.30186396794E+01 0.30812396238E+01 0.31750373539E+01 0.33082504116E+01 0.34925013690E+01
 0.37421739006E+01 0.40725115732E+01 0.44961986317E+01 0.50187481289E+01 0.57377432168E+01
 0.65734436726E+01 0.75493000342E+01 0.86279254247E+01 0.71964110718E+01 0.78082178811E+01
 0.83072470634E+01 0.86270752490E+01 0.87180486075E+01 0.85632208916E+01 0.81825257850E+01
 0.76279041142E+01 0.69688775602E+01 0.62759898538E+01 0.56077171820E+01 0.49294445815E+01
 0.44601990278E+01 0.40546581969E+01 0.37211190851E+01 0.34593072552E+01 0.32627106225E+01
 0.31214722986E+01 0.30250542350E+01 0.29641361210E+01 0.29315826896E+01 0.29226252881E+01
 0.29345765359E+01 0.29664316352E+01 0.30186396794E+01 0.30931846335E+01 0.31939310838E+01
 0.33270055375E+01 0.35008447601E+01 0.37254953167E+01 0.40108494223E+01 0.43637998675E+01
 0.47847670540E+01 0.52645338908E+01 0.58994025213E+01 0.65409879242E+01 0.56052966164E+01
 0.60523109385E+01 0.63539553297E+01 0.65547740684E+01 0.66267373665E+01 0.65564979824E+01
 0.63501493885E+01 0.60319362355E+01 0.56377507829E+01 0.52078687016E+01 0.47344670105E+01
 0.43600982628E+01 0.40179048505E+01 0.37211190851E+01 0.34759829793E+01 0.32825946740E+01
 0.31366092326E+01 0.30312925623E+01 0.29594180419E+01 0.29146404884E+01 0.28922013293E+01
 0.28890251296E+01 0.29034097750E+01 0.29345765359E+01 0.29823331720E+01 0.30470185185E+01
 0.31297574301E+01 0.32328961490E+01 0.33603563293E+01 0.35175831387E+01 0.37108009615E+01
 0.39454502932E+01 0.42239562719E+01 0.45433106170E+01 0.48932033188E+01 0.52554650536E+01
 0.47795821227E+01 0.49848287271E+01 0.51481395121E+01 0.52525615278E+01 0.52859230309E+01
 0.52428841686E+01 0.51257991949E+01 0.49442806991E+01 0.47136415841E+01 0.44525882431E+01
 0.41806258340E+01 0.39156279794E+01 0.36719459415E+01 0.34593072552E+01 0.32825946740E+01
 0.31424234633E+01 0.30362844213E+01 0.29599320791E+01 0.29086949846E+01 0.28784594898E+01
 0.28661984332E+01 0.28700453318E+01 0.28890251296E+01 0.29226252881E+01 0.29704126459E+01
 0.30318647242E+01 0.31064933063E+01 0.31942139582E+01 0.32957932725E+01 0.34131269661E+01
 0.35490999963E+01 0.37068699629E+01 0.38885882923E+01 0.40937922491E+01 0.43178971125E+01
 0.45513073757E+01 0.42618694019E+01 0.43821026250E+01 0.44769148157E+01 0.45355091457E+01
 0.45494564149E+01 0.45143185719E+01 0.44305836167E+01 0.43037062993E+01 0.41432745816E+01
 0.39615245615E+01 0.37715509892E+01 0.35855838737E+01 0.34136364835E+01 0.32627106225E+01
 0.31366092326E+01 0.30362844213E+01 0.29605612806E+01 0.29070346982E+01 0.28729375825E+01
 0.28558159587E+01 0.28539078716E+01 0.28661984332E+01 0.28922013293E+01 0.29315826896E+01
 0.29837799996E+01 0.30477646761E+01 0.31220488835E+01 0.32049524162E+01 0.32950433907E+01
 0.33915787045E+01 0.34947328996E+01 0.36054418317E+01 0.37247987823E+01 0.38530953137E+01
 0.39887488575E+01 0.41274515704E+01 0.39840660866E+01 0.40368423163E+01 0.40737604403E+01
 0.40891146477E+01 0.40779969598E+01 0.40374469120E+01 0.39672888914E+01 0.38704355872E+01
 0.37525804468E+01 0.36213669706E+01 0.34852532470E+01 0.33523455268E+01 0.32294461427E+01
 0.31214722986E+01 0.30312925623E+01 0.29599320791E+01 0.29070346982E+01 0.28714437292E+01
 0.28517663404E+01 0.28468100356E+01 0.28558159587E+01 0.28784594898E+01 0.29146404884E+01
 0.29641361210E+01 0.30262268929E+01 0.30994200673E+01 0.31813769421E+01 0.32690994437E+01
 0.33593527649E+01 0.34492128094E+01 0.35365618869E+01 0.36203466141E+01 0.37004728850E+01
 0.37773282422E+01 0.38510520366E+01 0.39207727802E+01 0.38972816115E+01 0.38924977427E+01
 0.38775561446E+01 0.38509048153E+01 0.38106197069E+01 0.37551929485E+01 0.36842858810E+01
 0.35992231848E+01 0.35030833017E+01 0.34003648568E+01 0.32963362139E+01 0.31962598963E+01
 0.31046981054E+01 0.30250542350E+01 0.29594180419E+01 0.29086949846E+01 0.28729375825E+01
 0.28517663404E+01 0.28447664413E+01 0.28517663404E+01 0.28729375825E+01 0.29086949846E+01
 0.29594180419E+01 0.30250542350E+01 0.31046981054E+01 0.31962598963E+01 0.32963362139E+01
 0.34003648568E+01 0.35030833017E+01 0.35992231848E+01 0.36842858810E+01 0.37551929485E+01
 0.38106197069E+01 0.38509048153E+01 0.38775561446E+01 0.38924977427E+01 0.39840660866E+01
 0.39207727802E+01 0.38510520366E+01 0.37773282422E+01 0.37004728850E+01 0.36203466141E+01
 0.35365618869E+01 0.34492128094E+01 0.33593527649E+01 0.32690994437E+01 0.31813769421E+01
 0.30994200673E+01 0.30262268929E+01 0.29641361210E+01 0.29146404884E+01 0.28784594898E+01
 0.28558159587E+01 0.28468100356E+01 0.28517663404E+01 0.28714437292E+01 0.29070346982E+01
 0.29599320791E+01 0.30312925623E+01 0.31214722986E+01 0.32294461427E+01 0.33523455268E+01
 0.34852532470E+01 0.36213669706E+01 0.37525804468E+01 0.38704355872E+01 0.39672888914E+01
 0.40374469120E+01 0.40779969598E+01 0.40891146477E+01 0.40737604403E+01 0.40368423163E+01
 0.42618694019E+01 0.41274515704E+01 0.39887488575E+01 0.38530953137E+01 0.37247987823E+01
 0.36054418317E+01 0.34947328996E+01 0.33915787045E+01 0.32950433907E+01 0.32049524162E+01
 0.31220488835E+01 0.30477646761E+01 0.29837799996E+01 0.29315826896E+01 0.28922013293E+01
 0.28661984332E+01 0.28539078716E+01 0.28558159587E+01 0.28729375825E+01 0.29070346982E+01
 0.29605612806E+01 0.30362844213E+01 0.31366092326E+01 0.32627106225E+01 0.34136364835E+01
 0.35855838737E+01 0.37715509892E+01 0.39615245615E+01 0.41432745816E+01 0.43037062993E+01
 0.44305836167E+01 0.45143185719E+01 0.45494564149E+01 0.45355091457E+01 0.44769148157E+01
 0.43821026250E+01 0.47795821227E+01 0.45513073757E+01 0.43178971125E+01 0.40937922491E+01
 0.38885882923E+01 0.37068699629E+01 0.35490999963E+01 0.34131269661E+01 0.32957932725E+01
 0.31942139582E+01 0.31064933063E+01 0.30318647242E+01 0.29704126459E+01 0.29226252881E+01
 0.28890251296E+01 0.28700453318E+01 0.28661984332E+01 0.28784594898E+01 0.29086949846E+01
 0.29599320791E+01 0.30362844213E+01 0.31424234633E+01 0.32825946740E+01 0.34593072552E+01
 0.36719459415E+01 0.39156279794E+01 0.41806258340E+01 0.44525882431E+01 0.47136415841E+01
 0.49442806991E+01 0.51257991949E+01 0.52428841686E+01 0.52859230309E+01 0.52525615278E+01
 0.51481395121E+01 0.49848287271E+01 0.56052966164E+01 0.52554650536E+01 0.48932033188E+01
 0.45433106170E+01 0.42239562719E+01 0.39454502932E+01 0.37108009615E+01 0.35175831387E+01
 0.33603563293E+01 0.32328961490E+01 0.31297574301E+01 0.30470185185E+01 0.29823331720E+01
 0.29345765359E+01 0.29034097750E+01 0.28890251296E+01 0.28922013293E+01 0.29146404884E+01
 0.29594180419E+01 0.30312925623E+01 0.31366092326E+01 0.32825946740E+01 0.34759829793E+01
 0.37211190851E+01 0.40179048505E+01 0.43600982628E+01 0.47344670105E+01 0.52078687016E+01
 0.56377507829E+01 0.60319362355E+01 0.63501493885E+01 0.65564979824E+01 0.66267373665E+01
 0.65547740684E+01 0.63539553297E+01 0.60523109385E+01 0.71964110718E+01 0.65409879242E+01
 0.58994025213E+01 0.52645338908E+01 0.47847670540E+01 0.43637998675E+01 0.40108494223E+01
 0.37254953167E+01 0.35008447601E+01 0.33270055375E+01 0.31939310838E+01 0.30931846335E+01
 0.30186396794E+01 0.29664316352E+01 0.29345765359E+01 0.29226252881E+01 0.29315826896E+01
 0.29641361210E+01 0.30250542350E+01 0.31214722986E+01 0.32627106225E+01 0.34593072552E+01
 0.37211190851E+01 0.40546581969E+01 0.44601990278E+01 0.49294445815E+01 0.56077171820E+01
 0.62759898538E+01 0.69688775602E+01 0.76279041142E+01 0.81825257850E+01 0.85632208916E+01
 0.87180486075E+01 0.86270752490E+01 0.83072470634E+01 0.78082178811E+01 0.97353465970E+01
 0.86279254247E+01 0.75493000342E+01 0.65734436726E+01 0.57377432168E+01 0.50187481289E+01
 0.44961986317E+01 0.40725115732E+01 0.37421739006E+01 0.34925013690E+01 0.33082504116E+01
 0.31750373539E+01 0.30812396238E+01 0.30186396794E+01 0.29823331720E+01 0.29704126459E+01
 0.29837799996E+01 0.30262268929E+01 0.31046981054E+01 0.32294461427E+01 0.34136364835E+01
 0.36719459415E+01 0.40179048505E+01 0.44601990278E+01 0.50869163871E+01 0.58404511417E+01
 0.67508445358E+01 0.77979485252E+01 0.89281596183E+01 0.10050394310E+02 0.11043039508E+02
 0.11773824788E+02 0.12132792744E+02 0.12062909396E+02 0.11579096218E+02 0.10762297260E+02
 0.14038587733E+02 0.12148081504E+02 0.10306541348E+02 0.86561652280E+01 0.72657083082E+01
 0.61474843647E+01 0.52206874319E+01 0.46046673449E+01 0.41199857800E+01 0.37546201229E+01
 0.34890635245E+01 0.33021537808E+01 0.31750373539E+01 0.30931846335E+01 0.30470185185E+01
 0.30318647242E+01 0.30477646761E+01 0.30994200673E+01 0.31962598963E+01 0.33523455268E+01
 0.35855838737E+01 0.39156279794E+01 0.43600982628E+01 0.49294445815E+01 0.58404511417E+01
 0.69275679126E+01 0.82909749056E+01 0.99238837773E+01 0.11764155844E+02 0.13679114949E+02
 0.15466614842E+02 0.16883273660E+02 0.17699916536E+02 0.17771013859E+02 0.17084545165E+02
 0.15766432989E+02 0.21363445528E+02 0.18119141063E+02 0.14941634662E+02 0.12109670196E+02
 0.97568785884E+01 0.79009042977E+01 0.64916166618E+01 0.53687779494E+01 0.46756570986E+01
 0.41457036092E+01 0.37591705474E+01 0.34890635245E+01 0.33082504116E+01 0.31939310838E+01
 0.31297574301E+01 0.31064933063E+01 0.31220488835E+01 0.31813769421E+01 0.32963362139E+01
 0.34852532470E+01 0.37715509892E+01 0.41806258340E+01 0.47344670105E+01 0.56077171820E+01
 0.67508445358E+01 0.82909749056E+01 0.10299939407E+02 0.12807388543E+02 0.15763004972E+02
 0.18992844399E+02 0.22182222370E+02 0.24900311192E+02 0.26689999769E+02 0.27205579549E+02
 0.26337728411E+02 0.24259903496E+02 0.33795941209E+02 0.28244233286E+02 0.22742940741E+02
 0.17849291845E+02 0.13826659315E+02 0.10708076741E+02 0.83918528239E+01 0.67224778028E+01
 0.55423419008E+01 0.47003388474E+01 0.41457036092E+01 0.37546201229E+01 0.34925013690E+01
 0.33270055375E+01 0.32328961490E+01 0.31942139582E+01 0.32049524162E+01 0.32690994437E+01
 0.34003648568E+01 0.36213669706E+01 0.39615245615E+01 0.44525882431E+01 0.52078687016E+01
 0.62759898538E+01 0.77979485252E+01 0.99238837773E+01 0.12807388543E+02 0.16562422657E+02
 0.21194631448E+02 0.26516000657E+02 0.32075788802E+02 0.37158689598E+02 0.40904465270E+02
 0.42551711622E+02 0.41721003807E+02 0.38583173851E+02 0.54575279699E+02 0.45234388818E+02
 0.35782667045E+02 0.27342712317E+02 0.20454148905E+02 0.15190853590E+02 0.11358210903E+02
 0.86605705772E+01 0.68038502067E+01 0.55423419008E+01 0.46756570986E+01 0.41199857800E+01
 0.37421739006E+01 0.35008447601E+01 0.33603563293E+01 0.32957932725E+01 0.32950433907E+01
 0.33593527649E+01 0.35030833017E+01 0.37525804468E+01 0.41432745816E+01 0.47136415841E+01
 0.56377507829E+01 0.69688775602E+01 0.89281596183E+01 0.11764155844E+02 0.15763004972E+02
 0.21194631448E+02 0.28207076674E+02 0.36669514831E+02 0.46007433473E+02 0.55123819304E+02
 0.62520514836E+02 0.66675402737E+02 0.66587123838E+02 0.62223854680E+02 0.87968087790E+02
 0.72929856263E+02 0.57126105757E+02 0.42803423686E+02 0.31116184183E+02 0.22278196136E+02
 0.15950140254E+02 0.11589577718E+02 0.86605705772E+01 0.67224778028E+01 0.53687779494E+01
 0.46046673449E+01 0.40725115732E+01 0.37254953167E+01 0.35175831387E+01 0.34131269661E+01
 0.33915787045E+01 0.34492128094E+01 0.35992231848E+01 0.38704355872E+01 0.43037062993E+01
 0.49442806991E+01 0.60319362355E+01 0.76279041142E+01 0.10050394310E+02 0.13679114949E+02
 0.18992844399E+02 0.26516000657E+02 0.36669514831E+02 0.49509329779E+02 0.64396297301E+02
 0.79770259532E+02 0.93253363774E+02 0.10218144133E+03 0.10444107310E+03 0.99325860059E+02
 0.13706927150E+03 0.11521322800E+03 0.90474364438E+02 0.67158117134E+02 0.47843550526E+02
 0.33256976473E+02 0.22935475265E+02 0.15950140254E+02 0.11358210903E+02 0.83918528239E+01
 0.64916166618E+01 0.52206874319E+01 0.44961986317E+01 0.40108494223E+01 0.37108009615E+01
 0.35490999963E+01 0.34947328996E+01 0.35365618869E+01 0.36842858810E+01 0.39672888914E+01
 0.44305836167E+01 0.51257991949E+01 0.63501493885E+01 0.81825257850E+01 0.11043039508E+02
 0.15466614842E+02 0.22182222370E+02 0.32075788802E+02 0.46007433473E+02 0.64396297301E+02
 0.86599070383E+02 0.11041532798E+03 0.13228807194E+03 0.14830966828E+03 0.15528612099E+03
 0.15141831077E+03 0.19554014011E+03 0.17097922238E+03 0.13778907031E+03 0.10314063351E+03
 0.72925517364E+02 0.49681647398E+02 0.33256976473E+02 0.22278196136E+02 0.15190853590E+02
 0.10708076741E+02 0.79009042977E+01 0.61474843647E+01 0.50187481289E+01 0.43637998675E+01
 0.39454502932E+01 0.37068699629E+01 0.36054418317E+01 0.36203466141E+01 0.37551929485E+01
 0.40374469120E+01 0.45143185719E+01 0.52428841686E+01 0.65564979824E+01 0.85632208916E+01
 0.11773824788E+02 0.16883273660E+02 0.24900311192E+02 0.37158689598E+02 0.55123819304E+02
 0.79770259532E+02 0.11041532798E+03 0.14356261330E+03 0.17340371357E+03 0.19494170570E+03
 0.20642973277E+03 0.20723558199E+03 0.22942495280E+03 0.22087590152E+03 0.19220860207E+03
 0.15025166832E+03 0.10774217903E+03 0.72925517364E+02 0.47843550526E+02 0.31116184183E+02
 0.20454148905E+02 0.13826659315E+02 0.97568785884E+01 0.72657083082E+01 0.57377432168E+01
 0.47847670540E+01 0.42239562719E+01 0.38885882923E+01 0.37247987823E+01 0.37004728850E+01
 0.38106197069E+01 0.40779969598E+01 0.45494564149E+01 0.52859230309E+01 0.66267373665E+01
 0.87180486075E+01 0.12132792744E+02 0.17699916536E+02 0.26689999769E+02 0.40904465270E+02
 0.62520514836E+02 0.93253363774E+02 0.13228807194E+03 0.17340371357E+03 0.20505356127E+03
 0.21913771161E+03 0.22188802966E+03 0.22553903963E+03 0.17559698922E+03 0.21294155202E+03
 0.22633440003E+03 0.19882182876E+03 0.15025166832E+03 0.10314063351E+03 0.67158117134E+02
 0.42803423686E+02 0.27342712317E+02 0.17849291845E+02 0.12109670196E+02 0.86561652280E+01
 0.65734436726E+01 0.52645338908E+01 0.45433106170E+01 0.40937922491E+01 0.38530953137E+01
 0.37773282422E+01 0.38509048153E+01 0.40891146477E+01 0.45355091457E+01 0.52525615278E+01
 0.65547740684E+01 0.86270752490E+01 0.12062909396E+02 0.17771013859E+02 0.27205579549E+02
 0.42551711622E+02 0.66675402737E+02 0.10218144133E+03 0.14830966828E+03 0.19494170570E+03
 0.21913771161E+03 0.20199645174E+03 0.16544880979E+03 0.15382041996E+03 0.12823524900E+03
 0.12269775178E+03 0.19732256418E+03 0.22633440003E+03 0.19220860207E+03 0.13778907031E+03
 0.90474364438E+02 0.57126105757E+02 0.35782667045E+02 0.22742940741E+02 0.14941634662E+02
 0.10306541348E+02 0.75493000342E+01 0.58994025213E+01 0.48932033188E+01 0.43178971125E+01
 0.39887488575E+01 0.38510520366E+01 0.38775561446E+01 0.40737604403E+01 0.44769148157E+01
 0.51481395121E+01 0.63539553297E+01 0.83072470634E+01 0.11579096218E+02 0.17084545165E+02
 0.26337728411E+02 0.41721003807E+02 0.66587123838E+02 0.10444107310E+03 0.15528612099E+03
 0.20642973277E+03 0.22188802966E+03 0.16544880979E+03 0.10034744754E+03 0.13870823100E+03
 0.85534119851E+03 0.24818480982E+03 0.12269775178E+03 0.21294155202E+03 0.22087590152E+03
 0.17097922238E+03 0.11521322800E+03 0.72929856263E+02 0.45234388818E+02 0.28244233286E+02
 0.18119141063E+02 0.12148081504E+02 0.86279254247E+01 0.65409879242E+01 0.52554650536E+01
 0.45513073757E+01 0.41274515704E+01 0.39207727802E+01 0.38924977427E+01 0.40368423163E+01
 0.43821026250E+01 0.49848287271E+01 0.60523109385E+01 0.78082178811E+01 0.10762297260E+02
 0.15766432989E+02 0.24259903496E+02 0.38583173851E+02 0.62223854680E+02 0.99325860059E+02
 0.15141831077E+03 0.20723558199E+03 0.22553903963E+03 0.15382041996E+03 0.13870823100E+03
 0.66391942906E+03 0.85534119851E+03 0.66391942906E+03 0.13870823100E+03 0.15382041995E+03
 0.22553903963E+03 0.20723558199E+03 0.15141831077E+03 0.99325860059E+02 0.62223854681E+02
 0.38583173852E+02 0.24259903497E+02 0.15766432990E+02 0.10762297261E+02 0.78082178811E+01
 0.60523109381E+01 0.49848287263E+01 0.43821026242E+01 0.40368423156E+01 0.38924977423E+01
 0.39207727802E+01 0.41274515708E+01 0.45513073764E+01 0.52554650545E+01 0.65409879250E+01
 0.86279254252E+01 0.12148081504E+02 0.18119141063E+02 0.28244233285E+02 0.45234388817E+02
 0.72929856262E+02 0.11521322800E+03 0.17097922238E+03 0.22087590152E+03 0.21294155202E+03
 0.12269775178E+03 0.24818480983E+03 0.66391942906E+03 0.85534119851E+03 0.24818480983E+03
 0.12269775178E+03 0.21294155202E+03 0.22087590152E+03 0.17097922238E+03 0.11521322800E+03
 0.72929856262E+02 0.45234388817E+02 0.28244233285E+02 0.18119141063E+02 0.12148081504E+02
 0.86279254252E+01 0.65409879250E+01 0.52554650545E+01 0.45513073764E+01 0.41274515708E+01
 0.39207727802E+01 0.38924977423E+01 0.40368423156E+01 0.43821026242E+01 0.49848287263E+01
 0.60523109381E+01 0.78082178811E+01 0.10762297261E+02 0.15766432990E+02 0.24259903497E+02
 0.38583173852E+02 0.62223854681E+02 0.99325860059E+02 0.15141831077E+03 0.20723558199E+03
 0.22553903963E+03 0.15382041995E+03 0.13870823100E+03 0.13870823100E+03 0.24818480983E+03
 0.13870823100E+03 0.12430371730E+03 0.20680542487E+03 0.22244034862E+03 0.17925990916E+03
 0.12433537954E+03 0.80139609627E+02 0.50178097418E+02 0.31406974276E+02 0.20073691001E+02
 0.13335987018E+02 0.93446279995E+01 0.69723514165E+01 0.54843738354E+01 0.46957675610E+01
 0.42024530382E+01 0.39380993698E+01 0.38555683384E+01 0.39380993694E+01 0.42024530375E+01
 0.46957675601E+01 0.54843738346E+01 0.69723514160E+01 0.93446279995E+01 0.13335987019E+02
 0.20073691002E+02 0.31406974277E+02 0.50178097419E+02 0.80139609628E+02 0.12433537954E+03
 0.17925990916E+03 0.22244034862E+03 0.20680542487E+03 0.12430371730E+03 0.15382041995E+03
 0.12269775178E+03 0.12430371730E+03 0.16544880979E+03 0.21450217971E+03 0.21591253748E+03
 0.17546726248E+03 0.12467061759E+03 0.82210032067E+02 0.52377514023E+02 0.33156673019E+02
 0.21306181213E+02 0.14151464205E+02 0.98650750139E+01 0.72955377471E+01 0.57478947155E+01
 0.48010245364E+01 0.42536565476E+01 0.39412051699E+01 0.38109854165E+01 0.38369297380E+01
 0.40244159170E+01 0.44093759077E+01 0.50511276443E+01 0.61861954319E+01 0.80210328567E+01
 0.11072937305E+02 0.16169246179E+02 0.24665253995E+02 0.38670619297E+02 0.61144902377E+02
 0.95288358372E+02 0.14188858534E+03 0.19294047053E+03 0.22435059061E+03 0.20680542487E+03
 0.22553903963E+03 0.21294155202E+03 0.20680542487E+03 0.21450217971E+03 0.21913771161E+03
 0.20043010619E+03 0.16084769920E+03 0.11637384103E+03 0.78707404977E+02 0.51348706029E+02
 0.33134053756E+02 0.21587509384E+02 0.14458155136E+02 0.10109900124E+02 0.74667607963E+01
 0.58559760203E+01 0.48548596928E+01 0.42735887472E+01 0.39265496486E+01 0.37585961908E+01
 0.37368133681E+01 0.38564846622E+01 0.41418589997E+01 0.46421942570E+01 0.54208234571E+01
 0.68657253758E+01 0.91198620696E+01 0.12827843607E+02 0.18922129792E+02 0.28854570169E+02
 0.44716715091E+02 0.69076251153E+02 0.10394789269E+03 0.14808567620E+03 0.19294047053E+03
 0.22244034862E+03 0.20723558199E+03 0.22087590152E+03 0.22244034862E+03 0.21591253748E+03
 0.20043010619E+03 0.17340371357E+03 0.13786868015E+03 0.10149054887E+03 0.70548959071E+02
 0.47358010526E+02 0.31352128428E+02 0.20862942834E+02 0.14199607112E+02 0.10038159923E+02
 0.74586892367E+01 0.58606478860E+01 0.48494562370E+01 0.42569739686E+01 0.38912505021E+01
 0.36976158123E+01 0.36391663247E+01 0.37032380247E+01 0.39032081736E+01 0.42767937329E+01
 0.48796406176E+01 0.59063983359E+01 0.75278832884E+01 0.10145034845E+02 0.14369520032E+02
 0.21141766725E+02 0.31823592318E+02 0.48173910034E+02 0.71974635489E+02 0.10394789269E+03
 0.14188858534E+03 0.17925990916E+03 0.15141831077E+03 0.17097922238E+03 0.17925990916E+03
 0.17546726248E+03 0.16084769920E+03 0.13786868015E+03 0.11041532798E+03 0.83111767787E+02
 0.59550463401E+02 0.41287482125E+02 0.28184793624E+02 0.19272204999E+02 0.13419192894E+02
 0.96581505598E+01 0.72689590350E+01 0.57577720969E+01 0.47828296155E+01 0.42018985489E+01
 0.38339767118E+01 0.36273511245E+01 0.35439869122E+01 0.35658839976E+01 0.36973558785E+01
 0.39647029882E+01 0.44129361522E+01 0.50975374788E+01 0.62831739187E+01 0.80910572788E+01
 0.10947422415E+02 0.15434575984E+02 0.22388313221E+02 0.32900176511E+02 0.48173910034E+02
 0.69076251153E+02 0.95288358372E+02 0.12433537954E+03 0.99325860059E+02 0.11521322800E+03
 0.12433537954E+03 0.12467061759E+03 0.11637384103E+03 0.10149054887E+03 0.83111767787E+02
 0.64396297301E+02 0.47719677216E+02 0.34274261403E+02 0.24217434867E+02 0.17096079108E+02
 0.12245363729E+02 0.90252625913E+01 0.69212879147E+01 0.55572116405E+01 0.46592260626E+01
 0.41103691914E+01 0.37555594524E+01 0.35478950193E+01 0.34507288404E+01 0.34433916283E+01
 0.35235033994E+01 0.37073419524E+01 0.40284677173E+01 0.45334380877E+01 0.52725636814E+01
 0.65709754972E+01 0.84719298587E+01 0.11389655784E+02 0.15816031705E+02 0.22388313221E+02
 0.31823592318E+02 0.44716715091E+02 0.61144902377E+02 0.80139609628E+02 0.62223854681E+02
 0.72929856262E+02 0.80139609627E+02 0.82210032067E+02 0.78707404977E+02 0.70548959071E+02
 0.59550463401E+02 0.47719677216E+02 0.36669514831E+02 0.27344355499E+02 0.20051175967E+02
 0.14664215579E+02 0.10849399811E+02 0.82271112148E+01 0.64591333861E+01 0.51996183803E+01
 0.44884470082E+01 0.39881341295E+01 0.36591483557E+01 0.34605787401E+01 0.33591158577E+01
 0.33337981769E+01 0.33780409039E+01 0.35002379926E+01 0.37233824997E+01 0.40831764402E+01
 0.46232345754E+01 0.53857408525E+01 0.67275194286E+01 0.86067353084E+01 0.11389655784E+02
 0.15434575984E+02 0.21141766725E+02 0.28854570169E+02 0.38670619297E+02 0.50178097419E+02
 0.38583173852E+02 0.45234388817E+02 0.50178097418E+02 0.52377514023E+02 0.51348706029E+02
 0.47358010526E+02 0.41287482125E+02 0.34274261403E+02 0.27344355499E+02 0.21194631447E+02