       N       E                     dE             d eps       ncg     rms          rms(c)
DAV:   1     0.908619801821E+02    0.90862E+02   -0.86168E+03 11966   0.150E+03
DAV:   2    -0.177288386061E+01   -0.92635E+02   -0.87199E+02 11304   0.317E+02
DAV:   3    -0.394983362996E+01   -0.21769E+01   -0.21736E+01 12288   0.534E+01
DAV:   4    -0.396088223247E+01   -0.11049E-01   -0.11048E-01 12390   0.370E+00
DAV:   5    -0.396099672323E+01   -0.11449E-03   -0.11449E-03 12516   0.345E-01    0.157E+01
DAV:   6    -0.396506095114E+01   -0.40642E-02   -0.22816E+00 11250   0.314E+01    0.648E+00
DAV:   7    -0.417413897353E+01   -0.20908E+00   -0.21600E-01 11808   0.657E+00    0.394E+00
DAV:   8    -0.422262805105E+01   -0.48489E-01   -0.28268E-02 11694   0.209E+00    0.169E+00
DAV:   9    -0.422475203840E+01   -0.21240E-02   -0.20019E-02 12654   0.732E-01    0.193E-01
DAV:  10    -0.422623373973E+01   -0.14817E-02   -0.22142E-03 11742   0.331E-01    0.142E-01
DAV:  11    -0.422729549610E+01   -0.10618E-02   -0.31303E-03 13616   0.266E-01    0.935E-02
DAV:  12    -0.422752168199E+01   -0.22619E-03   -0.10345E-03 13090   0.147E-01    0.181E-02
DAV:  13    -0.422752714774E+01   -0.54658E-05   -0.54996E-05 12634   0.468E-02    0.139E-02
DAV:  14    -0.422753304055E+01   -0.58928E-05   -0.17549E-06  8984   0.110E-02    0.474E-03
DAV:  15    -0.422753682447E+01   -0.37839E-05   -0.25645E-07  5718   0.690E-03    0.311E-03
DAV:  16    -0.422753666822E+01    0.15626E-06   -0.10668E-07  5622   0.230E-03
   1 F= -.42275367E+01 E0= -.42275367E+01  d E =0.000000E+00  mag=     2.8852
