=========================================
SLURM_JOB_ID = 33361975
SLURM_JOB_NODELIST = lnode40
SLURM_GPUS = 
SLURM_CPUS_ON_NODE = 8
SLURM_JOB_PARTITION = lenovo
SLURM_TASK_PID = 2556556
CUDA_VISIBLE_DEVICES = 
==========================================
 running on    8 total cores
 distrk:  each k-point on    8 cores,    1 groups
 distr:  one band on    4 cores,    2 groups
 using from now: INCAR     
 vasp.5.4.4.18Apr17-6-g9f103f2a35 (build Apr 28 2018 00:24:27) complex          
  
 POSCAR found type information on POSCAR  Eu O 
 POSCAR found :  2 types and       8 ions
 scaLAPACK will be used

 ----------------------------------------------------------------------------- 
|                                                                             |
|  ADVICE TO THIS USER RUNNING 'VASP/VAMP'   (HEAR YOUR MASTER'S VOICE ...):  |
|                                                                             |
|      You have a (more or less) 'small supercell' and for smaller cells      |
|      it is recommended  to use the reciprocal-space projection scheme!      |
|      The real space optimization is not  efficient for small cells and it   |
|      is also less accurate ...                                              |
|      Therefore set LREAL=.FALSE. in the  INCAR file                         |
|                                                                             |
 ----------------------------------------------------------------------------- 

 LDA part: xc-table for Pade appr. of Perdew
 POSCAR, INCAR and KPOINTS ok, starting setup
 FFT: planning ...
 WAVECAR not read
 WARNING: random wavefunctions but no delay for mixing, default for NELMDL
 entering main loop
       N       E                     dE             d eps       ncg     rms          rms(c)
DAV:   1     0.127774481398E+04    0.12777E+04   -0.31098E+04 52992   0.354E+03
DAV:   2     0.339467389842E+03   -0.93828E+03   -0.84801E+03 60736   0.705E+02
DAV:   3    -0.914286020809E+01   -0.34861E+03   -0.33828E+03 70040   0.365E+02
DAV:   4    -0.756544232304E+02   -0.66512E+02   -0.64898E+02 85288   0.149E+02
DAV:   5    -0.817712850216E+02   -0.61169E+01   -0.56824E+01 87024   0.492E+01    0.381E+01
DAV:   6    -0.898904810930E+02   -0.81192E+01   -0.33997E+02 72080   0.165E+02    0.529E+01
DAV:   7    -0.799418627117E+02    0.99486E+01   -0.17231E+02 61424   0.168E+02    0.257E+01
DAV:   8    -0.837806050121E+02   -0.38387E+01   -0.46219E+01 82040   0.425E+01    0.996E+00
DAV:   9    -0.831700722945E+02    0.61053E+00   -0.78817E+00 77848   0.182E+01    0.622E+00
DAV:  10    -0.833812797327E+02   -0.21121E+00   -0.11121E+00 86248   0.861E+00    0.538E+00
DAV:  11    -0.832919899844E+02    0.89290E-01   -0.33328E-01 70592   0.618E+00    0.353E+00
DAV:  12    -0.832533874710E+02    0.38603E-01   -0.18411E-01 75728   0.430E+00    0.150E+00
DAV:  13    -0.832460948556E+02    0.72926E-02   -0.49271E-02 79136   0.205E+00    0.509E-01
DAV:  14    -0.832494920447E+02   -0.33972E-02   -0.13054E-02 86240   0.102E+00    0.227E-01
DAV:  15    -0.832503278419E+02   -0.83580E-03   -0.24431E-03 87152   0.425E-01    0.188E-01
DAV:  16    -0.832504428671E+02   -0.11503E-03   -0.71864E-04 83752   0.228E-01    0.764E-02
DAV:  17    -0.832505153104E+02   -0.72443E-04   -0.26804E-04 81112   0.148E-01    0.384E-02
DAV:  18    -0.832505485523E+02   -0.33242E-04   -0.45916E-05 81488   0.778E-02    0.218E-02
DAV:  19    -0.832505249810E+02    0.23571E-04   -0.19220E-05 75128   0.433E-02    0.243E-02
DAV:  20    -0.832505144122E+02    0.10569E-04   -0.62616E-06 40512   0.310E-02    0.128E-02
DAV:  21    -0.832505196350E+02   -0.52228E-05   -0.17992E-06 36256   0.212E-02    0.379E-03
DAV:  22    -0.832505235503E+02   -0.39152E-05   -0.11660E-06 32328   0.198E-02    0.433E-03
DAV:  23    -0.832505275068E+02   -0.39565E-05   -0.87511E-07 31904   0.127E-02    0.312E-03
DAV:  24    -0.832505269488E+02    0.55799E-06   -0.48281E-07 31832   0.134E-02
   1 F= -.83250527E+02 E0= -.83250527E+02  d E =0.000000E+00  mag=    -0.0001
