 vasp.5.4.4.18Apr17-6-g9f103f2a35 (build Apr 28 2018 00:24:27) complex          
  
 executed on             LinuxIFC date 2021.03.28  01:29:28
 running on    8 total cores
 distrk:  each k-point on    8 cores,    1 groups
 distr:  one band on NCORES_PER_BAND=   1 cores,    8 groups


--------------------------------------------------------------------------------------------------------


 INCAR:
 POTCAR:    PAW_PBE Eu 23Dec2003                  
 POTCAR:    PAW_PBE O 08Apr2002                   

 ----------------------------------------------------------------------------- 
|                                                                             |
|           W    W    AA    RRRRR   N    N  II  N    N   GGGG   !!!           |
|           W    W   A  A   R    R  NN   N  II  NN   N  G    G  !!!           |
|           W    W  A    A  R    R  N N  N  II  N N  N  G       !!!           |
|           W WW W  AAAAAA  RRRRR   N  N N  II  N  N N  G  GGG   !            |
|           WW  WW  A    A  R   R   N   NN  II  N   NN  G    G                |
|           W    W  A    A  R    R  N    N  II  N    N   GGGG   !!!           |
|                                                                             |
|      For optimal performance we recommend to set                            |
|        NCORE= 4 - approx SQRT( number of cores)                             |
|      NCORE specifies how many cores store one orbital (NPAR=cpu/NCORE).     |
|      This setting can  greatly improve the performance of VASP for DFT.     |
|      The default,   NCORE=1            might be grossly inefficient         |
|      on modern multi-core architectures or massively parallel machines.     |
|      Do your own testing !!!!                                               |
|      Unfortunately you need to use the default for GW and RPA calculations. |
|      (for HF NCORE is supported but not extensively tested yet)             |
|                                                                             |
 ----------------------------------------------------------------------------- 

 POTCAR:    PAW_PBE Eu 23Dec2003                  
   VRHFIN =Eu : [core=Kr4d]                                                     
   LEXCH  = PE                                                                  
   EATOM  =  2619.8085 eV,  192.5505 Ry                                         
                                                                                
   TITEL  = PAW_PBE Eu 23Dec2003                                                
   LULTRA =        F    use ultrasoft PP ?                                      
   IUNSCR =        1    unscreen: 0-lin 1-nonlin 2-no                           
   RPACOR =    2.300    partial core radius                                     
   POMASS =  151.965; ZVAL   =   17.000    mass and valenz                      
   RCORE  =    2.800    outmost cutoff radius                                   
   RWIGS  =    2.800; RWIGS  =    1.482    wigner-seitz radius (au A)           
   ENMAX  =  249.668; ENMIN  =  187.251 eV                                      
   RCLOC  =    2.308    cutoff for local pot                                    
   LCOR   =        T    correct aug charges                                     
   LPAW   =        T    paw PP                                                  
   EAUG   =  549.628                                                            
   DEXC   =    0.000                                                            
   RMAX   =    2.870    core radius for proj-oper                               
   RAUG   =    1.300    factor for augmentation sphere                          
   RDEP   =    2.887    radius for radial grids                                 
   RDEPT  =    2.221    core radius for aug-charge                              
                                                                                
   Atomic configuration                                                         
   14 entries                                                                   
     n  l   j            E        occ.                                          
     1  0  0.50    -48354.7667   2.0000                                         
     2  0  0.50     -7939.6472   2.0000                                         
     2  1  1.50     -7072.6637   6.0000                                         
     3  0  0.50     -1747.1875   2.0000                                         
     3  1  1.50     -1477.5221   6.0000                                         
     3  2  2.50     -1117.4686  10.0000                                         
     4  0  0.50      -346.8682   2.0000                                         
     4  1  1.50      -258.1962   6.0000                                         
     4  2  2.50      -134.7724  10.0000                                         
     5  0  0.50       -44.6510   2.0000                                         
     6  0  0.50        -3.6227   2.0000                                         
     5  1  1.50       -23.7639   6.0000                                         
     5  2  2.50        -1.3130   0.0000                                         
     4  3  2.50        -2.7310   7.0000                                         
   Description                                                                  
     l       E           TYP  RCUT    TYP  RCUT                                 
     0    -44.6510453     23  2.400                                             
     0     -3.6226685     23  2.400                                             
     1    -23.7638687     23  2.400                                             
     1     27.2116520     23  2.400                                             
     2     -1.3129622     23  2.500                                             
     2     13.6058260     23  2.500                                             
     3     -2.7309948     23  2.800                                             
     3     -3.4014565     23  2.800                                             
  local pseudopotential read in
  partial core-charges read in
  partial kinetic energy density read in
  atomic valenz-charges read in
  non local Contribution for L=           0  read in
    real space projection operators read in
  non local Contribution for L=           0  read in
    real space projection operators read in
  non local Contribution for L=           1  read in
    real space projection operators read in
  non local Contribution for L=           1  read in
    real space projection operators read in
  non local Contribution for L=           2  read in
    real space projection operators read in
  non local Contribution for L=           2  read in
    real space projection operators read in
  non local Contribution for L=           3  read in
    real space projection operators read in
  non local Contribution for L=           3  read in
    real space projection operators read in
    PAW grid and wavefunctions read in
 
   number of l-projection  operators is LMAX  =           8
   number of lm-projection operators is LMMAX =          32
 
 POTCAR:    PAW_PBE O 08Apr2002                   
   VRHFIN =O: s2p4                                                              
   LEXCH  = PE                                                                  
   EATOM  =   432.3788 eV,   31.7789 Ry                                         
                                                                                
   TITEL  = PAW_PBE O 08Apr2002                                                 
   LULTRA =        F    use ultrasoft PP ?                                      
   IUNSCR =        1    unscreen: 0-lin 1-nonlin 2-no                           
   RPACOR =    1.200    partial core radius                                     
   POMASS =   16.000; ZVAL   =    6.000    mass and valenz                      
   RCORE  =    1.520    outmost cutoff radius                                   
   RWIGS  =    1.550; RWIGS  =    0.820    wigner-seitz radius (au A)           
   ENMAX  =  400.000; ENMIN  =  300.000 eV                                      
   ICORE  =        2    local potential                                         
   LCOR   =        T    correct aug charges                                     
   LPAW   =        T    paw PP                                                  
   EAUG   =  605.392                                                            
   DEXC   =    0.000                                                            
   RMAX   =    1.553    core radius for proj-oper                               
   RAUG   =    1.300    factor for augmentation sphere                          
   RDEP   =    1.550    radius for radial grids                                 
   RDEPT  =    1.329    core radius for aug-charge                              
                                                                                
   Atomic configuration                                                         
    4 entries                                                                   
     n  l   j            E        occ.                                          
     1  0  0.50      -514.6923   2.0000                                         
     2  0  0.50       -23.9615   2.0000                                         
     2  1  0.50        -9.0305   4.0000                                         
     3  2  1.50        -9.5241   0.0000                                         
   Description                                                                  
     l       E           TYP  RCUT    TYP  RCUT                                 
     0    -23.9615318     23  1.200                                             
     0     -9.5240782     23  1.200                                             
     1     -9.0304911     23  1.520                                             
     1      8.1634956     23  1.520                                             
     2     -9.5240782      7  1.500                                             
  local pseudopotential read in
  partial core-charges read in
  partial kinetic energy density read in
  kinetic energy density of atom read in
  atomic valenz-charges read in
  non local Contribution for L=           0  read in
    real space projection operators read in
  non local Contribution for L=           0  read in
    real space projection operators read in
  non local Contribution for L=           1  read in
    real space projection operators read in
  non local Contribution for L=           1  read in
    real space projection operators read in
    PAW grid and wavefunctions read in
 
   number of l-projection  operators is LMAX  =           4
   number of lm-projection operators is LMMAX =           8
 

 ----------------------------------------------------------------------------- 
|                                                                             |
|  ADVICE TO THIS USER RUNNING 'VASP/VAMP'   (HEAR YOUR MASTER'S VOICE ...):  |
|                                                                             |
|      You have a (more or less) 'small supercell' and for smaller cells      |
|      it is recommended  to use the reciprocal-space projection scheme!      |
|      The real space optimization is not  efficient for small cells and it   |
|      is also less accurate ...                                              |
|      Therefore set LREAL=.FALSE. in the  INCAR file                         |
|                                                                             |
 ----------------------------------------------------------------------------- 

 Optimization of the real space projectors (new method)

 maximal supplied QI-value         = 13.42
 optimisation between [QCUT,QGAM] = [ 11.67, 23.35] = [ 38.16,152.62] Ry 
 Optimized for a Real-space Cutoff    1.63 Angstroem

   l    n(q)    QCUT    max X(q) W(low)/X(q) W(high)/X(q)  e(spline) 
   0     11    11.673    10.400    0.14E-04    0.18E-05    0.24E-07
   0     11    11.673    10.768    0.21E-04    0.32E-05    0.49E-07
   1     11    11.673     4.094    0.40E-05    0.13E-04    0.93E-07
   1     11    11.673     4.009    0.11E-04    0.46E-04    0.33E-06
   2     10    11.673    29.030    0.79E-04    0.60E-04    0.70E-06
   2     10    11.673    19.941    0.80E-04    0.60E-04    0.71E-06
   3     10    11.673    88.889    0.23E-03    0.29E-03    0.30E-06
   3     10    11.673    76.102    0.23E-03    0.30E-03    0.30E-06
 Optimization of the real space projectors (new method)

 maximal supplied QI-value         = 24.76
 optimisation between [QCUT,QGAM] = [ 11.64, 23.27] = [ 37.91,151.63] Ry 
 Optimized for a Real-space Cutoff    1.14 Angstroem

   l    n(q)    QCUT    max X(q) W(low)/X(q) W(high)/X(q)  e(spline) 
   0      8    11.635    20.381    0.10E-03    0.33E-03    0.24E-06
   0      8    11.635    15.268    0.11E-03    0.35E-03    0.26E-06
   1      7    11.635     5.964    0.24E-03    0.31E-03    0.30E-06
   1      7    11.635     5.382    0.22E-03    0.25E-03    0.26E-06
  PAW_PBE Eu 23Dec2003                  :
 energy of atom  1       EATOM=-2619.8085
 kinetic energy error for atom=    0.0015 (will be added to EATOM!!)
  PAW_PBE O 08Apr2002                   :
 energy of atom  2       EATOM= -432.3788
 kinetic energy error for atom=    0.0208 (will be added to EATOM!!)
 
 
 POSCAR: Eu4 O4                                  
  positions in direct lattice
  No initial velocities read in
 exchange correlation table for  LEXCH =        8
   RHO(1)=    0.500       N(1)  =     2000
   RHO(2)=  100.500       N(2)  =     4000
 


--------------------------------------------------------------------------------------------------------


 ion  position               nearest neighbor table
   1  0.250  0.750  0.500-   5 2.54   6 2.54   7 2.54   8 2.54   7 2.54   8 2.54
   2  0.500  0.500  0.000-   5 2.54   8 2.54   7 2.54   6 2.54   6 2.54   7 2.54
   3  0.000  0.000  0.000-   6 2.54   7 2.54   5 2.54   8 2.54   8 2.54   5 2.54
   4  0.750  0.250  0.500-   7 2.54   8 2.54   5 2.54   6 2.54   5 2.54   6 2.54
   5  0.375  0.125  0.750-   1 2.54   2 2.54   3 2.54   4 2.54   3 2.54   4 2.54
   6  0.125  0.375  0.250-   1 2.54   3 2.54   2 2.54   4 2.54   4 2.54   2 2.54
   7  0.875  0.625  0.750-   3 2.54   4 2.54   1 2.54   2 2.54   2 2.54   1 2.54
   8  0.625  0.875  0.250-   2 2.54   4 2.54   3 2.54   1 2.54   1 2.54   3 2.54
 
  LATTYP: Found a triclinic cell.
 ALAT       =    12.9533718410
 B/A-ratio  =     0.2773521863
 C/A-ratio  =     0.4803813306
 COS(alpha) =     0.0000197668
 COS(beta)  =     0.5604549631
 COS(gamma) =     0.6933838625
  
  Lattice vectors:
  
 A1 = (  -8.9816590000,  -7.2596040000,   5.8666680000)
 A2 = (  -3.5926460000,   0.0000000000,   0.0000000000)
 A3 = (  -0.0001230000,  -6.2225580000,   0.0000000000)


Analysis of symmetry for initial positions (statically):
=====================================================================
 Subroutine PRICEL returns following result:
 
  LATTYP: Found a trigonal (rhomboedric) cell.
 ALAT       =     3.5926460000
 COS(alpha) =     0.5000181060
  
  Lattice vectors:
  
 A1 = (   3.5926460000,   0.0000000000,   0.0000000000)
 A2 = (   1.7963845000,   3.1112790000,   0.0000000000)
 A3 = (   1.7963932500,   1.0371165000,   2.9333340000)
 
   4 primitive cells build up your supercell.
 

 Routine SETGRP: Setting up the symmetry group for a 
 triclinic supercell.


 Subroutine GETGRP returns: Found  2 space group operations
 (whereof  2 operations were pure point group operations)
 out of a pool of  2 trial point group operations.


The static configuration has the point symmetry S_2 .


Analysis of symmetry for dynamics (positions and initial velocities):
=====================================================================
 Subroutine PRICEL returns following result:
 
  LATTYP: Found a trigonal (rhomboedric) cell.
 ALAT       =     3.5926460000
 COS(alpha) =     0.5000181060
  
  Lattice vectors:
  
 A1 = (   3.5926460000,   0.0000000000,   0.0000000000)
 A2 = (   1.7963845000,   3.1112790000,   0.0000000000)
 A3 = (   1.7963932500,   1.0371165000,   2.9333340000)
 
   4 primitive cells build up your supercell.
 

 Routine SETGRP: Setting up the symmetry group for a 
 triclinic supercell.


 Subroutine GETGRP returns: Found  2 space group operations
 (whereof  2 operations were pure point group operations)
 out of a pool of  2 trial point group operations.


The dynamic configuration has the point symmetry S_2 .


Analysis of structural, dynamic, and magnetic symmetry:
=====================================================================
 Subroutine PRICEL returns:
 Original cell was already a primitive cell.
 

 Routine SETGRP: Setting up the symmetry group for a 
 triclinic supercell.


 Subroutine GETGRP returns: Found  2 space group operations
 (whereof  1 operations were pure point group operations)
 out of a pool of  2 trial point group operations.


The magnetic configuration has the point symmetry C_1 .
 The point group associated with its full space group is S_2 .


 Subroutine INISYM returns: Found  2 space group operations
 (whereof  1 operations are pure point group operations),
 and found     1 'primitive' translations

 
 
 KPOINTS: pymatgen v2019.10.16 with grid density =

Automatic generation of k-mesh.
