 vasp.5.4.4.18Apr17-6-g9f103f2a35 (build Apr 28 2018 00:24:27) complex          
  
 executed on             LinuxIFC date 2021.03.31  16:14:47
 running on    8 total cores
 distrk:  each k-point on    8 cores,    1 groups
 distr:  one band on NCORES_PER_BAND=   4 cores,    2 groups


--------------------------------------------------------------------------------------------------------


 INCAR:
 POTCAR:    PAW_PBE Eu 23Dec2003                  
 POTCAR:    PAW_PBE O 08Apr2002                   
 POTCAR:    PAW_PBE Eu 23Dec2003                  
   VRHFIN =Eu : [core=Kr4d]                                                     
   LEXCH  = PE                                                                  
   EATOM  =  2619.8085 eV,  192.5505 Ry                                         
                                                                                
   TITEL  = PAW_PBE Eu 23Dec2003                                                
   LULTRA =        F    use ultrasoft PP ?                                      
   IUNSCR =        1    unscreen: 0-lin 1-nonlin 2-no                           
   RPACOR =    2.300    partial core radius                                     
   POMASS =  151.965; ZVAL   =   17.000    mass and valenz                      
   RCORE  =    2.800    outmost cutoff radius                                   
   RWIGS  =    2.800; RWIGS  =    1.482    wigner-seitz radius (au A)           
   ENMAX  =  249.668; ENMIN  =  187.251 eV                                      
   RCLOC  =    2.308    cutoff for local pot                                    
   LCOR   =        T    correct aug charges                                     
   LPAW   =        T    paw PP                                                  
   EAUG   =  549.628                                                            
   DEXC   =    0.000                                                            
   RMAX   =    2.870    core radius for proj-oper                               
   RAUG   =    1.300    factor for augmentation sphere                          
   RDEP   =    2.887    radius for radial grids                                 
   RDEPT  =    2.221    core radius for aug-charge                              
                                                                                
   Atomic configuration                                                         
   14 entries                                                                   
     n  l   j            E        occ.                                          
     1  0  0.50    -48354.7667   2.0000                                         
     2  0  0.50     -7939.6472   2.0000                                         
     2  1  1.50     -7072.6637   6.0000                                         
     3  0  0.50     -1747.1875   2.0000                                         
     3  1  1.50     -1477.5221   6.0000                                         
     3  2  2.50     -1117.4686  10.0000                                         
     4  0  0.50      -346.8682   2.0000                                         
     4  1  1.50      -258.1962   6.0000                                         
     4  2  2.50      -134.7724  10.0000                                         
     5  0  0.50       -44.6510   2.0000                                         
     6  0  0.50        -3.6227   2.0000                                         
     5  1  1.50       -23.7639   6.0000                                         
     5  2  2.50        -1.3130   0.0000                                         
     4  3  2.50        -2.7310   7.0000                                         
   Description                                                                  
     l       E           TYP  RCUT    TYP  RCUT                                 
     0    -44.6510453     23  2.400                                             
     0     -3.6226685     23  2.400                                             
     1    -23.7638687     23  2.400                                             
     1     27.2116520     23  2.400                                             
     2     -1.3129622     23  2.500                                             
     2     13.6058260     23  2.500                                             
     3     -2.7309948     23  2.800                                             
     3     -3.4014565     23  2.800                                             
  local pseudopotential read in
  partial core-charges read in
  partial kinetic energy density read in
  atomic valenz-charges read in
  non local Contribution for L=           0  read in
    real space projection operators read in
  non local Contribution for L=           0  read in
    real space projection operators read in
  non local Contribution for L=           1  read in
    real space projection operators read in
  non local Contribution for L=           1  read in
    real space projection operators read in
  non local Contribution for L=           2  read in
    real space projection operators read in
  non local Contribution for L=           2  read in
    real space projection operators read in
  non local Contribution for L=           3  read in
    real space projection operators read in
  non local Contribution for L=           3  read in
    real space projection operators read in
    PAW grid and wavefunctions read in
 
   number of l-projection  operators is LMAX  =           8
   number of lm-projection operators is LMMAX =          32
 
 POTCAR:    PAW_PBE O 08Apr2002                   
   VRHFIN =O: s2p4                                                              
   LEXCH  = PE                                                                  
   EATOM  =   432.3788 eV,   31.7789 Ry                                         
                                                                                
   TITEL  = PAW_PBE O 08Apr2002                                                 
   LULTRA =        F    use ultrasoft PP ?                                      
   IUNSCR =        1    unscreen: 0-lin 1-nonlin 2-no                           
   RPACOR =    1.200    partial core radius                                     
   POMASS =   16.000; ZVAL   =    6.000    mass and valenz                      
   RCORE  =    1.520    outmost cutoff radius                                   
   RWIGS  =    1.550; RWIGS  =    0.820    wigner-seitz radius (au A)           
   ENMAX  =  400.000; ENMIN  =  300.000 eV                                      
   ICORE  =        2    local potential                                         
   LCOR   =        T    correct aug charges                                     
   LPAW   =        T    paw PP                                                  
   EAUG   =  605.392                                                            
   DEXC   =    0.000                                                            
   RMAX   =    1.553    core radius for proj-oper                               
   RAUG   =    1.300    factor for augmentation sphere                          
   RDEP   =    1.550    radius for radial grids                                 
   RDEPT  =    1.329    core radius for aug-charge                              
                                                                                
   Atomic configuration                                                         
    4 entries                                                                   
     n  l   j            E        occ.                                          
     1  0  0.50      -514.6923   2.0000                                         
     2  0  0.50       -23.9615   2.0000                                         
     2  1  0.50        -9.0305   4.0000                                         
     3  2  1.50        -9.5241   0.0000                                         
   Description                                                                  
     l       E           TYP  RCUT    TYP  RCUT                                 
     0    -23.9615318     23  1.200                                             
     0     -9.5240782     23  1.200                                             
     1     -9.0304911     23  1.520                                             
     1      8.1634956     23  1.520                                             
     2     -9.5240782      7  1.500                                             
  local pseudopotential read in
  partial core-charges read in
  partial kinetic energy density read in
  kinetic energy density of atom read in
  atomic valenz-charges read in
  non local Contribution for L=           0  read in
    real space projection operators read in
  non local Contribution for L=           0  read in
    real space projection operators read in
  non local Contribution for L=           1  read in
    real space projection operators read in
  non local Contribution for L=           1  read in
    real space projection operators read in
    PAW grid and wavefunctions read in
 
   number of l-projection  operators is LMAX  =           4
   number of lm-projection operators is LMMAX =           8
 

 ----------------------------------------------------------------------------- 
|                                                                             |
|  ADVICE TO THIS USER RUNNING 'VASP/VAMP'   (HEAR YOUR MASTER'S VOICE ...):  |
|                                                                             |
|      You have a (more or less) 'small supercell' and for smaller cells      |
|      it is recommended  to use the reciprocal-space projection scheme!      |
|      The real space optimization is not  efficient for small cells and it   |
|      is also less accurate ...                                              |
|      Therefore set LREAL=.FALSE. in the  INCAR file                         |
|                                                                             |
 ----------------------------------------------------------------------------- 

 Optimization of the real space projectors (new method)

 maximal supplied QI-value         = 13.42
 optimisation between [QCUT,QGAM] = [ 11.67, 23.35] = [ 38.16,152.62] Ry 
 Optimized for a Real-space Cutoff    1.63 Angstroem

   l    n(q)    QCUT    max X(q) W(low)/X(q) W(high)/X(q)  e(spline) 
   0     11    11.673    10.400    0.14E-04    0.18E-05    0.24E-07
   0     11    11.673    10.768    0.21E-04    0.32E-05    0.49E-07
   1     11    11.673     4.094    0.40E-05    0.13E-04    0.93E-07
   1     11    11.673     4.009    0.11E-04    0.46E-04    0.33E-06
   2     10    11.673    29.030    0.79E-04    0.60E-04    0.70E-06
   2     10    11.673    19.941    0.80E-04    0.60E-04    0.71E-06
   3     10    11.673    88.889    0.23E-03    0.29E-03    0.30E-06
   3     10    11.673    76.102    0.23E-03    0.30E-03    0.30E-06
 Optimization of the real space projectors (new method)

 maximal supplied QI-value         = 24.76
 optimisation between [QCUT,QGAM] = [ 11.64, 23.27] = [ 37.91,151.63] Ry 
 Optimized for a Real-space Cutoff    1.14 Angstroem

   l    n(q)    QCUT    max X(q) W(low)/X(q) W(high)/X(q)  e(spline) 
   0      8    11.635    20.381    0.10E-03    0.33E-03    0.24E-06
   0      8    11.635    15.268    0.11E-03    0.35E-03    0.26E-06
   1      7    11.635     5.964    0.24E-03    0.31E-03    0.30E-06
   1      7    11.635     5.382    0.22E-03    0.25E-03    0.26E-06
  PAW_PBE Eu 23Dec2003                  :
 energy of atom  1       EATOM=-2619.8085
 kinetic energy error for atom=    0.0015 (will be added to EATOM!!)
  PAW_PBE O 08Apr2002                   :
 energy of atom  2       EATOM= -432.3788
 kinetic energy error for atom=    0.0208 (will be added to EATOM!!)
 
 
 POSCAR: Eu4 O4                                  
  positions in direct lattice
  velocities in cartesian coordinates
 exchange correlation table for  LEXCH =        8
   RHO(1)=    0.500       N(1)  =     2000
   RHO(2)=  100.500       N(2)  =     4000
 


--------------------------------------------------------------------------------------------------------


 ion  position               nearest neighbor table
   1  0.250  0.749  0.500-   7 2.53   7 2.53   6 2.54   8 2.54   8 2.54   5 2.55
   2  0.500  0.501  1.000-   7 2.53   7 2.53   8 2.54   6 2.54   6 2.54   5 2.55
   3  1.000  0.001  1.000-   5 2.53   5 2.53   6 2.54   8 2.54   8 2.54   7 2.55
   4  0.750  0.249  0.500-   5 2.53   5 2.53   8 2.54   6 2.54   6 2.54   7 2.55
   5  0.375  0.125  0.750-   3 2.53   4 2.53   4 2.53   3 2.53   2 2.55   1 2.55
   6  0.125  0.375  0.250-   3 2.54   1 2.54   2 2.54   4 2.54   4 2.54   2 2.54
   7  0.875  0.625  0.750-   2 2.53   1 2.53   2 2.53   1 2.53   4 2.55   3 2.55
   8  0.625  0.875  0.250-   4 2.54   2 2.54   1 2.54   3 2.54   3 2.54   1 2.54
 
  LATTYP: Found a triclinic cell.
 ALAT       =     8.0241777336
 B/A-ratio  =     0.4467171352
 C/A-ratio  =     0.7774974597
 COS(alpha) =     0.0000884434
 COS(beta)  =     0.1292724212
 COS(gamma) =     0.6701710204
  
  Lattice vectors:
  
 A1 = (  -5.3771497192,  -1.0384750145,   5.8647471252)
 A2 = (  -3.5845376795,  -0.0001229941,   0.0002359496)
 A3 = (  -0.0003378132,  -6.2387776013,  -0.0015544489)


Analysis of symmetry for initial positions (statically):
=====================================================================
 Subroutine PRICEL returns:
 Original cell was already a primitive cell.
 

 Routine SETGRP: Setting up the symmetry group for a 
 triclinic supercell.


 Subroutine GETGRP returns: Found  2 space group operations
 (whereof  1 operations were pure point group operations)
 out of a pool of  2 trial point group operations.


The static configuration has the point symmetry C_1 .
 The point group associated with its full space group is S_2 .


Analysis of symmetry for dynamics (positions and initial velocities):
=====================================================================
 Subroutine PRICEL returns:
 Original cell was already a primitive cell.
 

 Routine SETGRP: Setting up the symmetry group for a 
 triclinic supercell.


 Subroutine GETGRP returns: Found  2 space group operations
 (whereof  1 operations were pure point group operations)
 out of a pool of  2 trial point group operations.


The dynamic configuration has the point symmetry C_1 .
 The point group associated with its full space group is S_2 .


Analysis of structural, dynamic, and magnetic symmetry:
=====================================================================
 Subroutine PRICEL returns:
 Original cell was already a primitive cell.
 

 Routine SETGRP: Setting up the symmetry group for a 
 triclinic supercell.


 Subroutine GETGRP returns: Found  2 space group operations
 (whereof  1 operations were pure point group operations)
 out of a pool of  2 trial point group operations.


The magnetic configuration has the point symmetry C_1 .
 The point group associated with its full space group is S_2 .


 Subroutine INISYM returns: Found  2 space group operations
 (whereof  1 operations are pure point group operations),
 and found     1 'primitive' translations

 
 
 KPOINTS: pymatgen v2019.10.16 with grid density =

Automatic generation of k-mesh.
Space group operators:
 irot       det(A)        alpha          n_x          n_y          n_z        tau_x        tau_y        tau_z
    1     1.000000     0.000000     1.000000     0.000000     0.000000     0.000000     0.000000     0.000000
    2    -1.000000     0.000000     1.000000     0.000000     0.000000    -1.250000    -0.750000     0.500000
 
 Subroutine IBZKPT returns following result:
 ===========================================
 
 Found    200 irreducible k-points:
 
 Following reciprocal coordinates:
            Coordinates               Weight
  0.000000  0.000000  0.000000      1.000000
  0.090909  0.000000 -0.000000      2.000000
  0.181818  0.000000 -0.000000      2.000000
  0.272727  0.000000 -0.000000      2.000000
  0.363636  0.000000 -0.000000      2.000000
  0.454545 -0.000000 -0.000000      2.000000
 -0.000000  0.166667 -0.000000      2.000000
  0.090909  0.166667 -0.000000      2.000000
  0.181818  0.166667 -0.000000      2.000000
  0.272727  0.166667 -0.000000      2.000000
  0.363636  0.166667 -0.000000      2.000000
  0.454545  0.166667  0.000000      2.000000
 -0.454545  0.166667  0.000000      2.000000
 -0.363636  0.166667  0.000000      2.000000
 -0.272727  0.166667  0.000000      2.000000
 -0.181818  0.166667 -0.000000      2.000000
 -0.090909  0.166667 -0.000000      2.000000
 -0.000000  0.333333 -0.000000      2.000000
  0.090909  0.333333 -0.000000      2.000000
  0.181818  0.333333 -0.000000      2.000000
  0.272727  0.333333 -0.000000      2.000000
  0.363636  0.333333 -0.000000      2.000000
  0.454545  0.333333 -0.000000      2.000000
 -0.454545  0.333333 -0.000000      2.000000
 -0.363636  0.333333 -0.000000      2.000000
 -0.272727  0.333333  0.000000      2.000000
 -0.181818  0.333333 -0.000000      2.000000
 -0.090909  0.333333 -0.000000      2.000000
 -0.000000  0.500000 -0.000000      1.000000
  0.090909  0.500000 -0.000000      2.000000
  0.181818  0.500000 -0.000000      2.000000
  0.272727  0.500000 -0.000000      2.000000
  0.363636  0.500000 -0.000000      2.000000
  0.454545  0.500000  0.000000      2.000000
 -0.000000 -0.000000  0.166667      2.000000
  0.090909  0.000000  0.166667      2.000000
  0.181818  0.000000  0.166667      2.000000
  0.272727  0.000000  0.166667      2.000000
  0.363636  0.000000  0.166667      2.000000
  0.454545  0.000000  0.166667      2.000000
 -0.454545 -0.000000  0.166667      2.000000
 -0.363636 -0.000000  0.166667      2.000000
 -0.272727  0.000000  0.166667      2.000000
 -0.181818  0.000000  0.166667      2.000000
 -0.090909  0.000000  0.166667      2.000000
 -0.000000  0.166667  0.166667      2.000000
  0.090909  0.166667  0.166667      2.000000
  0.181818  0.166667  0.166667      2.000000
  0.272727  0.166667  0.166667      2.000000
  0.363636  0.166667  0.166667      2.000000
  0.454545  0.166667  0.166667      2.000000
 -0.454545  0.166667  0.166667      2.000000
 -0.363636  0.166667  0.166667      2.000000
 -0.272727  0.166667  0.166667      2.000000
 -0.181818  0.166667  0.166667      2.000000
 -0.090909  0.166667  0.166667      2.000000
 -0.000000  0.333333  0.166667      2.000000
  0.090909  0.333333  0.166667      2.000000
  0.181818  0.333333  0.166667      2.000000
  0.272727  0.333333  0.166667      2.000000
  0.363636  0.333333  0.166667      2.000000
  0.454545  0.333333  0.166667      2.000000
 -0.454545  0.333333  0.166667      2.000000
 -0.363636  0.333333  0.166667      2.000000
 -0.272727  0.333333  0.166667      2.000000
 -0.181818  0.333333  0.166667      2.000000
 -0.090909  0.333333  0.166667      2.000000
 -0.000000  0.500000  0.166667      2.000000
  0.090909  0.500000  0.166667      2.000000
  0.181818  0.500000  0.166667      2.000000
  0.272727  0.500000  0.166667      2.000000
  0.363636  0.500000  0.166667      2.000000
  0.454545  0.500000  0.166667      2.000000
 -0.454545  0.500000  0.166667      2.000000
 -0.363636  0.500000  0.166667      2.000000
 -0.272727  0.500000  0.166667      2.000000
 -0.181818  0.500000  0.166667      2.000000
 -0.090909  0.500000  0.166667      2.000000
  0.000000 -0.333333  0.166667      2.000000
  0.090909 -0.333333  0.166667      2.000000
  0.181818 -0.333333  0.166667      2.000000
  0.272727 -0.333333  0.166667      2.000000
  0.363636 -0.333333  0.166667      2.000000
  0.454545 -0.333333  0.166667      2.000000
 -0.454545 -0.333333  0.166667      2.000000
 -0.363636 -0.333333  0.166667      2.000000
 -0.272727 -0.333333  0.166667      2.000000
 -0.181818 -0.333333  0.166667      2.000000
 -0.090909 -0.333333  0.166667      2.000000
  0.000000 -0.166667  0.166667      2.000000
  0.090909 -0.166667  0.166667      2.000000
  0.181818 -0.166667  0.166667      2.000000
  0.272727 -0.166667  0.166667      2.000000
  0.363636 -0.166667  0.166667      2.000000
  0.454545 -0.166667  0.166667      2.000000
 -0.454545 -0.166667  0.166667      2.000000
 -0.363636 -0.166667  0.166667      2.000000
 -0.272727 -0.166667  0.166667      2.000000
 -0.181818 -0.166667  0.166667      2.000000
 -0.090909 -0.166667  0.166667      2.000000
 -0.000000 -0.000000  0.333333      2.000000
  0.090909 -0.000000  0.333333      2.000000
  0.181818  0.000000  0.333333      2.000000
  0.272727  0.000000  0.333333      2.000000
  0.363636  0.000000  0.333333      2.000000
  0.454545 -0.000000  0.333333      2.000000
 -0.454545  0.000000  0.333333      2.000000
 -0.363636 -0.000000  0.333333      2.000000
 -0.272727 -0.000000  0.333333      2.000000
 -0.181818 -0.000000  0.333333      2.000000
 -0.090909  0.000000  0.333333      2.000000
 -0.000000  0.166667  0.333333      2.000000
  0.090909  0.166667  0.333333      2.000000
  0.181818  0.166667  0.333333      2.000000
  0.272727  0.166667  0.333333      2.000000
  0.363636  0.166667  0.333333      2.000000
  0.454545  0.166667  0.333333      2.000000
 -0.454545  0.166667  0.333333      2.000000
 -0.363636  0.166667  0.333333      2.000000
 -0.272727  0.166667  0.333333      2.000000
 -0.181818  0.166667  0.333333      2.000000
 -0.090909  0.166667  0.333333      2.000000
  0.000000  0.333333  0.333333      2.000000
  0.090909  0.333333  0.333333      2.000000
  0.181818  0.333333  0.333333      2.000000
  0.272727  0.333333  0.333333      2.000000
  0.363636  0.333333  0.333333      2.000000
  0.454545  0.333333  0.333333      2.000000
 -0.454545  0.333333  0.333333      2.000000
 -0.363636  0.333333  0.333333      2.000000
 -0.272727  0.333333  0.333333      2.000000
 -0.181818  0.333333  0.333333      2.000000
 -0.090909  0.333333  0.333333      2.000000
 -0.000000  0.500000  0.333333      2.000000
  0.090909  0.500000  0.333333      2.000000
  0.181818  0.500000  0.333333      2.000000
  0.272727  0.500000  0.333333      2.000000
  0.363636  0.500000  0.333333      2.000000
  0.454545  0.500000  0.333333      2.000000
 -0.454545  0.500000  0.333333      2.000000
 -0.363636  0.500000  0.333333      2.000000
 -0.272727  0.500000  0.333333      2.000000
 -0.181818  0.500000  0.333333      2.000000
 -0.090909  0.500000  0.333333      2.000000
 -0.000000 -0.333333  0.333333      2.000000
  0.090909 -0.333333  0.333333      2.000000
  0.181818 -0.333333  0.333333      2.000000
  0.272727 -0.333333  0.333333      2.000000
  0.363636 -0.333333  0.333333      2.000000
  0.454545 -0.333333  0.333333      2.000000
 -0.454545 -0.333333  0.333333      2.000000
 -0.363636 -0.333333  0.333333      2.000000
 -0.272727 -0.333333  0.333333      2.000000
 -0.181818 -0.333333  0.333333      2.000000
 -0.090909 -0.333333  0.333333      2.000000
  0.000000 -0.166667  0.333333      2.000000
  0.090909 -0.166667  0.333333      2.000000
  0.181818 -0.166667  0.333333      2.000000
  0.272727 -0.166667  0.333333      2.000000
  0.363636 -0.166667  0.333333      2.000000
  0.454545 -0.166667  0.333333      2.000000
 -0.454545 -0.166667  0.333333      2.000000
 -0.363636 -0.166667  0.333333      2.000000
 -0.272727 -0.166667  0.333333      2.000000
 -0.181818 -0.166667  0.333333      2.000000
 -0.090909 -0.166667  0.333333      2.000000
 -0.000000  0.000000  0.500000      1.000000
  0.090909  0.000000  0.500000      2.000000
  0.181818  0.000000  0.500000      2.000000
  0.272727  0.000000  0.500000      2.000000
  0.363636  0.000000  0.500000      2.000000
  0.454545  0.000000  0.500000      2.000000
 -0.000000  0.166667  0.500000      2.000000
  0.090909  0.166667  0.500000      2.000000
  0.181818  0.166667  0.500000      2.000000
  0.272727  0.166667  0.500000      2.000000
  0.363636  0.166667  0.500000      2.000000
  0.454545  0.166667  0.500000      2.000000
 -0.454545  0.166667  0.500000      2.000000
 -0.363636  0.166667  0.500000      2.000000
 -0.272727  0.166667  0.500000      2.000000
 -0.181818  0.166667  0.500000      2.000000
 -0.090909  0.166667  0.500000      2.000000
 -0.000000  0.333333  0.500000      2.000000
  0.090909  0.333333  0.500000      2.000000
  0.181818  0.333333  0.500000      2.000000
  0.272727  0.333333  0.500000      2.000000
  0.363636  0.333333  0.500000      2.000000
  0.454545  0.333333  0.500000      2.000000
 -0.454545  0.333333  0.500000      2.000000
 -0.363636  0.333333  0.500000      2.000000
 -0.272727  0.333333  0.500000      2.000000
 -0.181818  0.333333  0.500000      2.000000
 -0.090909  0.333333  0.500000      2.000000
 -0.000000  0.500000  0.500000      1.000000
  0.090909  0.500000  0.500000      2.000000
  0.181818  0.500000  0.500000      2.000000
  0.272727  0.500000  0.500000      2.000000
  0.363636  0.500000  0.500000      2.000000
  0.454545  0.500000  0.500000      2.000000
 
 Following cartesian coordinates:
            Coordinates               Weight
  0.000000  0.000000  0.000000      1.000000
  0.025362 -0.000003  0.007752      2.000000
  0.050724 -0.000007  0.015504      2.000000
  0.076086 -0.000010  0.023256      2.000000
  0.101448 -0.000013  0.031007      2.000000
  0.126810 -0.000017  0.038759      2.000000
 -0.000001  0.026713  0.004730      2.000000
  0.025361  0.026710  0.012481      2.000000
  0.050723  0.026707  0.020233      2.000000
  0.076085  0.026704  0.027985      2.000000
  0.101447  0.026700  0.035737      2.000000
  0.126809  0.026697  0.043489      2.000000
 -0.126810  0.026730 -0.034030      2.000000
 -0.101448  0.026727 -0.026278      2.000000
 -0.076087  0.026723 -0.018526      2.000000
 -0.050725  0.026720 -0.010774      2.000000
 -0.025363  0.026717 -0.003022      2.000000
 -0.000001  0.053427  0.009459      2.000000
  0.025361  0.053424  0.017211      2.000000
  0.050723  0.053420  0.024963      2.000000
  0.076085  0.053417  0.032715      2.000000
  0.101447  0.053414  0.040467      2.000000
  0.126809  0.053410  0.048218      2.000000
 -0.126811  0.053443 -0.029300      2.000000
 -0.101449  0.053440 -0.021548      2.000000
 -0.076087  0.053437 -0.013796      2.000000
 -0.050725  0.053434 -0.006044      2.000000
 -0.025363  0.053430  0.001707      2.000000
 -0.000002  0.080140  0.014189      1.000000
  0.025360  0.080137  0.021941      2.000000
  0.050722  0.080134  0.029693      2.000000
  0.076084  0.080130  0.037444      2.000000
  0.101446  0.080127  0.045196      2.000000
  0.126808  0.080124  0.052948      2.000000
  0.000002 -0.000007  0.028419      2.000000
  0.025364 -0.000010  0.036171      2.000000
  0.050726 -0.000014  0.043923      2.000000
  0.076088 -0.000017  0.051674      2.000000
  0.101450 -0.000020  0.059426      2.000000
  0.126812 -0.000024  0.067178      2.000000
 -0.126808  0.000009 -0.010340      2.000000
 -0.101446  0.000006 -0.002588      2.000000
 -0.076084  0.000003  0.005163      2.000000
 -0.050722 -0.000000  0.012915      2.000000
 -0.025360 -0.000004  0.020667      2.000000
  0.000001  0.026706  0.033148      2.000000
  0.025363  0.026703  0.040900      2.000000
  0.050725  0.026700  0.048652      2.000000
  0.076087  0.026696  0.056404      2.000000
  0.101449  0.026693  0.064156      2.000000
  0.126811  0.026690  0.071908      2.000000
 -0.126809  0.026723 -0.005611      2.000000
 -0.101447  0.026720  0.002141      2.000000
 -0.076085  0.026716  0.009893      2.000000
 -0.050723  0.026713  0.017645      2.000000
 -0.025361  0.026710  0.025397      2.000000
  0.000001  0.053420  0.037878      2.000000
  0.025363  0.053417  0.045630      2.000000
  0.050725  0.053413  0.053382      2.000000
  0.076087  0.053410  0.061134      2.000000
  0.101449  0.053407  0.068885      2.000000
  0.126810  0.053403  0.076637      2.000000
 -0.126809  0.053436 -0.000881      2.000000
 -0.101447  0.053433  0.006871      2.000000
 -0.076085  0.053430  0.014623      2.000000
 -0.050723  0.053426  0.022374      2.000000
 -0.025361  0.053423  0.030126      2.000000
  0.000000  0.080133  0.042608      2.000000
  0.025362  0.080130  0.050360      2.000000
  0.050724  0.080127  0.058111      2.000000
  0.076086  0.080123  0.065863      2.000000
  0.101448  0.080120  0.073615      2.000000
  0.126810  0.080117  0.081367      2.000000
 -0.126810  0.080150  0.003849      2.000000
 -0.101448  0.080147  0.011600      2.000000
 -0.076086  0.080143  0.019352      2.000000
 -0.050724  0.080140  0.027104      2.000000
 -0.025362  0.080137  0.034856      2.000000
  0.000003 -0.053434  0.018960      2.000000
  0.025365 -0.053437  0.026711      2.000000
  0.050727 -0.053441  0.034463      2.000000
  0.076089 -0.053444  0.042215      2.000000
  0.101451 -0.053447  0.049967      2.000000
  0.126813 -0.053451  0.057719      2.000000
 -0.126807 -0.053417 -0.019800      2.000000
 -0.101445 -0.053421 -0.012048      2.000000
 -0.076083 -0.053424 -0.004296      2.000000
 -0.050721 -0.053427  0.003456      2.000000
 -0.025359 -0.053431  0.011208      2.000000
  0.000002 -0.026721  0.023689      2.000000
  0.025364 -0.026724  0.031441      2.000000
  0.050726 -0.026727  0.039193      2.000000
  0.076088 -0.026730  0.046945      2.000000
  0.101450 -0.026734  0.054697      2.000000
  0.126812 -0.026737  0.062448      2.000000
 -0.126807 -0.026704 -0.015070      2.000000
 -0.101445 -0.026707 -0.007318      2.000000
 -0.076083 -0.026711  0.000434      2.000000
 -0.050721 -0.026714  0.008186      2.000000
 -0.025359 -0.026717  0.015937      2.000000
  0.000004 -0.000014  0.056838      2.000000
  0.025366 -0.000017  0.064590      2.000000
  0.050728 -0.000021  0.072341      2.000000
  0.076090 -0.000024  0.080093      2.000000
  0.101452 -0.000027  0.087845      2.000000
  0.126814 -0.000031  0.095597      2.000000
 -0.126806  0.000002  0.018079      2.000000
 -0.101444 -0.000001  0.025830      2.000000
 -0.076082 -0.000004  0.033582      2.000000
 -0.050720 -0.000008  0.041334      2.000000
 -0.025358 -0.000011  0.049086      2.000000
  0.000003  0.026699  0.061567      2.000000
  0.025365  0.026696  0.069319      2.000000
  0.050727  0.026693  0.077071      2.000000
  0.076089  0.026689  0.084823      2.000000
  0.101451  0.026686  0.092575      2.000000
  0.126813  0.026683  0.100327      2.000000
 -0.126807  0.026716  0.022808      2.000000
 -0.101445  0.026713  0.030560      2.000000
 -0.076083  0.026709  0.038312      2.000000
 -0.050721  0.026706  0.046064      2.000000
 -0.025359  0.026703  0.053815      2.000000
  0.000003  0.053413  0.066297      2.000000
  0.025364  0.053409  0.074049      2.000000
  0.050726  0.053406  0.081801      2.000000
  0.076088  0.053403  0.089552      2.000000
  0.101450  0.053400  0.097304      2.000000
  0.126812  0.053396  0.105056      2.000000
 -0.126807  0.053429  0.027538      2.000000
 -0.101445  0.053426  0.035290      2.000000
 -0.076083  0.053423  0.043041      2.000000
 -0.050721  0.053419  0.050793      2.000000
 -0.025359  0.053416  0.058545      2.000000
  0.000002  0.080126  0.071027      2.000000
  0.025364  0.080123  0.078778      2.000000
  0.050726  0.080120  0.086530      2.000000
  0.076088  0.080116  0.094282      2.000000
  0.101450  0.080113  0.102034      2.000000
  0.126812  0.080110  0.109786      2.000000
 -0.126808  0.080143  0.032267      2.000000
 -0.101446  0.080139  0.040019      2.000000
 -0.076084  0.080136  0.047771      2.000000
 -0.050722  0.080133  0.055523      2.000000
 -0.025360  0.080130  0.063275      2.000000
  0.000005 -0.053441  0.047378      2.000000
  0.025367 -0.053444  0.055130      2.000000
  0.050729 -0.053448  0.062882      2.000000
  0.076091 -0.053451  0.070634      2.000000
  0.101453 -0.053454  0.078386      2.000000
  0.126815 -0.053458  0.086138      2.000000
 -0.126805 -0.053425  0.008619      2.000000
 -0.101443 -0.053428  0.016371      2.000000
 -0.076081 -0.053431  0.024123      2.000000
 -0.050719 -0.053434  0.031875      2.000000
 -0.025357 -0.053438  0.039627      2.000000
  0.000004 -0.026728  0.052108      2.000000
  0.025366 -0.026731  0.059860      2.000000
  0.050728 -0.026734  0.067612      2.000000
  0.076090 -0.026738  0.075364      2.000000
  0.101452 -0.026741  0.083115      2.000000
  0.126814 -0.026744  0.090867      2.000000
 -0.126805 -0.026711  0.013349      2.000000
 -0.101444 -0.026714  0.021101      2.000000
 -0.076082 -0.026718  0.028853      2.000000
 -0.050720 -0.026721  0.036604      2.000000
 -0.025358 -0.026724  0.044356      2.000000
  0.000006 -0.000021  0.085257      1.000000
  0.025368 -0.000025  0.093008      2.000000
  0.050730 -0.000028  0.100760      2.000000
  0.076092 -0.000031  0.108512      2.000000
  0.101453 -0.000034  0.116264      2.000000
  0.126815 -0.000038  0.124016      2.000000
  0.000005  0.026692  0.089986      2.000000
  0.025367  0.026689  0.097738      2.000000
  0.050729  0.026686  0.105490      2.000000
  0.076091  0.026682  0.113242      2.000000
  0.101453  0.026679  0.120994      2.000000
  0.126815  0.026676  0.128745      2.000000
 -0.126805  0.026709  0.051227      2.000000
 -0.101443  0.026705  0.058979      2.000000
 -0.076081  0.026702  0.066731      2.000000
 -0.050719  0.026699  0.074482      2.000000
 -0.025357  0.026696  0.082234      2.000000
  0.000004  0.053406  0.094716      2.000000
  0.025366  0.053402  0.102468      2.000000
  0.050728  0.053399  0.110219      2.000000
  0.076090  0.053396  0.117971      2.000000
  0.101452  0.053392  0.125723      2.000000
  0.126814  0.053389  0.133475      2.000000
 -0.126805  0.053422  0.055957      2.000000
 -0.101443  0.053419  0.063708      2.000000
 -0.076081  0.053416  0.071460      2.000000
 -0.050720  0.053412  0.079212      2.000000
 -0.025358  0.053409  0.086964      2.000000
  0.000004  0.080119  0.099445      1.000000
  0.025366  0.080116  0.107197      2.000000
  0.050728  0.080113  0.114949      2.000000
  0.076090  0.080109  0.122701      2.000000
  0.101452  0.080106  0.130453      2.000000
  0.126814  0.080103  0.138205      2.000000
 
 TETIRR: Found   1188 inequivalent tetrahedra from     2376


--------------------------------------------------------------------------------------------------------




 Dimension of arrays:
   k-points           NKPTS =    200   k-points in BZ     NKDIM =    200   number of bands    NBANDS=     56
   number of dos      NEDOS =    301   number of ions     NIONS =      8
   non local maximal  LDIM  =      8   non local SUM 2l+1 LMDIM =     32
   total plane-waves  NPLWV =  64512
   max r-space proj   IRMAX =   8927   max aug-charges    IRDMAX=  28317
   dimension x,y,z NGX =    28 NGY =   48 NGZ =   48
   dimension x,y,z NGXF=    56 NGYF=   96 NGZF=   96
   support grid    NGXF=    56 NGYF=   96 NGZF=   96
   ions per type =               4   4
   NGX,Y,Z   is equivalent  to a cutoff of  12.99, 12.79, 12.83 a.u.
   NGXF,Y,Z  is equivalent  to a cutoff of  25.97, 25.58, 25.66 a.u.

 SYSTEM =  unknown system                          
 POSCAR =  Eu4 O4                                  

 Startparameter for this run:
   NWRITE =      2    write-flag & timer
   PREC   = accura    normal or accurate (medium, high low for compatibility)
   ISTART =      0    job   : 0-new  1-cont  2-samecut
   ICHARG =      2    charge: 1-file 2-atom 10-const
   ISPIN  =      2    spin polarized calculation?
   LNONCOLLINEAR =      F non collinear calculations
   LSORBIT =      F    spin-orbit coupling
   INIWAV =      1    electr: 0-lowe 1-rand  2-diag
   LASPH  =      T    aspherical Exc in radial PAW
   METAGGA=      F    non-selfconsistent MetaGGA calc.

 Electronic Relaxation 1
   ENCUT  =  520.0 eV  38.22 Ry    6.18 a.u.   6.66 11.60 11.56*2*pi/ulx,y,z
   ENINI  =  520.0     initial cutoff
   ENAUG  =  605.4 eV  augmentation charge cutoff
   NELM   =    120;   NELMIN=  2; NELMDL=  0     # of ELM steps 
   EDIFF  = 0.1E-05   stopping-criterion for ELM
   LREAL  =      T    real-space projection
   NLSPLINE    = F    spline interpolate recip. space projectors
   LCOMPAT=      F    compatible to vasp.4.4
   GGA_COMPAT  = T    GGA compatible to vasp.4.4-vasp.4.6
   LMAXPAW     = -100 max onsite density
   LMAXMIX     =    4 max onsite mixed and CHGCAR
   VOSKOWN=      0    Vosko Wilk Nusair interpolation
   ROPT   =   -0.00025  -0.00025
 Ionic relaxation
   EDIFFG = 0.1E-04   stopping-criterion for IOM
   NSW    =      0    number of steps for IOM
   NBLOCK =      1;   KBLOCK =      1    inner block; outer block 
   IBRION =     -1    ionic relax: 0-MD 1-quasi-New 2-CG
   NFREE  =      0    steps in history (QN), initial steepest desc. (CG)
   ISIF   =      3    stress and relaxation
   IWAVPR =     10    prediction:  0-non 1-charg 2-wave 3-comb
   ISYM   =      2    0-nonsym 1-usesym 2-fastsym
   LCORR  =      T    Harris-Foulkes like correction to forces

   POTIM  = 0.5000    time-step for ionic-motion
   TEIN   =    0.0    initial temperature
   TEBEG  =    0.0;   TEEND  =   0.0 temperature during run
   SMASS  =  -3.00    Nose mass-parameter (am)
   estimated Nose-frequenzy (Omega)   =  0.10E-29 period in steps =****** mass=  -0.294E-27a.u.
   SCALEE = 1.0000    scale energy and forces
   NPACO  =    256;   APACO  = 16.0  distance and # of slots for P.C.
   PSTRESS=    0.0 pullay stress

  Mass of Ions in am
   POMASS = 151.97 16.00
  Ionic Valenz
   ZVAL   =  17.00  6.00
  Atomic Wigner-Seitz radii
   RWIGS  =  -1.00 -1.00
  virtual crystal weights 
   VCA    =   1.00  1.00
   NELECT =      92.0000    total number of electrons
   NUPDOWN=      -1.0000    fix difference up-down

 DOS related values:
   EMIN   =  10.00;   EMAX   =-10.00  energy-range for DOS
   EFERMI =   0.00
   ISMEAR =    -5;   SIGMA  =   0.05  broadening in eV -4-tet -1-fermi 0-gaus

 Electronic relaxation 2 (details)
   IALGO  =     38    algorithm
   LDIAG  =      T    sub-space diagonalisation (order eigenvalues)
   LSUBROT=      F    optimize rotation matrix (better conditioning)
   TURBO    =      0    0=normal 1=particle mesh
   IRESTART =      0    0=no restart 2=restart with 2 vectors
   NREBOOT  =      0    no. of reboots
   NMIN     =      0    reboot dimension
   EREF     =   0.00    reference energy to select bands
   IMIX   =      4    mixing-type and parameters
     AMIX     =   0.40;   BMIX     =  1.00
     AMIX_MAG =   1.60;   BMIX_MAG =  1.00
     AMIN     =   0.10
     WC   =   100.;   INIMIX=   1;  MIXPRE=   1;  MAXMIX= -45

 Intra band minimization:
   WEIMIN = 0.0000     energy-eigenvalue tresh-hold
   EBREAK =  0.45E-08  absolut break condition
   DEPER  =   0.30     relativ break condition  

   TIME   =   0.40     timestep for ELM

  volume/ion in A,a.u.               =      16.39       110.63
  Fermi-wavevector in a.u.,A,eV,Ry     =   1.454607  2.748810 28.788334  2.115883
  Thomas-Fermi vector in A             =   2.571738
 
 Write flags
   LWAVE        =      F    write WAVECAR
   LDOWNSAMPLE  =      F    k-point downsampling of WAVECAR
   LCHARG       =      F    write CHGCAR
   LVTOT        =      F    write LOCPOT, total local potential
   LVHAR        =      F    write LOCPOT, Hartree potential only
   LELF         =      F    write electronic localiz. function (ELF)
   LORBIT       =     11    0 simple, 1 ext, 2 COOP (PROOUT), +10 PAW based schemes


 Dipole corrections
   LMONO  =      F    monopole corrections only (constant potential shift)
   LDIPOL =      F    correct potential (dipole corrections)
   IDIPOL =      0    1-x, 2-y, 3-z, 4-all directions 
   EPSILON=  1.0000000 bulk dielectric constant

 Exchange correlation treatment:
   GGA     =    --    GGA type
   LEXCH   =     8    internal setting for exchange type
   VOSKOWN=      0    Vosko Wilk Nusair interpolation
   LHFCALC =     F    Hartree Fock is set to
   LHFONE  =     F    Hartree Fock one center treatment
   AEXX    =    0.0000 exact exchange contribution

 Linear response parameters
   LEPSILON=     F    determine dielectric tensor
   LRPA    =     F    only Hartree local field effects (RPA)
   LNABLA  =     F    use nabla operator in PAW spheres
   LVEL    =     F    velocity operator in full k-point grid
   LINTERFAST=   F  fast interpolation
   KINTER  =     0    interpolate to denser k-point grid
   CSHIFT  =0.1000    complex shift for real part using Kramers Kronig
   OMEGAMAX=  -1.0    maximum frequency
   DEG_THRESHOLD= 0.2000000E-02 threshold for treating states as degnerate
   RTIME   =   -0.100 relaxation time in fs
  (WPLASMAI=    0.000 imaginary part of plasma frequency in eV, 0.658/RTIME)
   DFIELD  = 0.0000000 0.0000000 0.0000000 field for delta impulse in time
 
 Orbital magnetization related:
   ORBITALMAG=     F  switch on orbital magnetization
   LCHIMAG   =     F  perturbation theory with respect to B field
   DQ        =  0.001000  dq finite difference perturbation B field
   LLRAUG    =     F  two centre corrections for induced B field



--------------------------------------------------------------------------------------------------------


 Static calculation
 charge density and potential will be updated during run
 spin polarized calculation
 Variant of blocked Davidson
 Davidson routine will perform the subspace rotation
 perform sub-space diagonalisation
    after iterative eigenvector-optimisation
 modified Broyden-mixing scheme, WC =      100.0
 initial mixing is a Kerker type mixing with AMIX =  0.4000 and BMIX =      1.0000
 Hartree-type preconditioning will be used
 using additional bands           10
 real space projection scheme for non local part
 use partial core corrections
 calculate Harris-corrections to forces 
   (improved forces if not selfconsistent)
 use gradient corrections 
 use of overlap-Matrix (Vanderbilt PP)
 Fermi weights with tetrahedron method with Bloechl corrections


--------------------------------------------------------------------------------------------------------


  energy-cutoff  :      520.00
  volume of cell :      131.15
      direct lattice vectors                 reciprocal lattice vectors
     3.584537679  0.000122994 -0.000235950     0.278981619 -0.000036352  0.085270204
     0.000337813  6.238777601  0.001554449    -0.000003632  0.160280740  0.028377697
    -1.792612040 -1.038352020  5.864511176     0.000011225 -0.000042486  0.170513105

  length of vectors
     3.584537689  6.238777804  6.219656274     0.291722047  0.162773491  0.170513110


 
 k-points in units of 2pi/SCALE and weight: pymatgen v2019.10.16 with grid density =
   0.00000000  0.00000000  0.00000000       0.003
   0.02536197 -0.00000330  0.00775184       0.005
   0.05072393 -0.00000661  0.01550367       0.005
   0.07608590 -0.00000991  0.02325551       0.005
   0.10144786 -0.00001322  0.03100735       0.005
   0.12680983 -0.00001652  0.03875918       0.005
  -0.00000061  0.02671346  0.00472962       0.005
   0.02536136  0.02671015  0.01248145       0.005
   0.05072333  0.02670685  0.02023329       0.005
   0.07608529  0.02670354  0.02798513       0.005
   0.10144726  0.02670024  0.03573696       0.005
   0.12680922  0.02669693  0.04348880       0.005
  -0.12681043  0.02672998 -0.03402957       0.005
  -0.10144847  0.02672668 -0.02627773       0.005
  -0.07608650  0.02672337 -0.01852589       0.005
  -0.05072454  0.02672007 -0.01077406       0.005
  -0.02536257  0.02671676 -0.00302222       0.005
  -0.00000121  0.05342691  0.00945923       0.005
   0.02536075  0.05342361  0.01721107       0.005
   0.05072272  0.05342030  0.02496291       0.005
   0.07608469  0.05341700  0.03271474       0.005
   0.10144665  0.05341369  0.04046658       0.005
   0.12680862  0.05341039  0.04821842       0.005
  -0.12681104  0.05344344 -0.02929995       0.005
  -0.10144907  0.05344013 -0.02154811       0.005
  -0.07608711  0.05343683 -0.01379628       0.005
  -0.05072514  0.05343352 -0.00604444       0.005
  -0.02536318  0.05343022  0.00170740       0.005
  -0.00000182  0.08014037  0.01418885       0.003
   0.02536015  0.08013707  0.02194069       0.005
   0.05072211  0.08013376  0.02969252       0.005
   0.07608408  0.08013046  0.03744436       0.005
   0.10144605  0.08012715  0.04519620       0.005
   0.12680801  0.08012385  0.05294803       0.005
   0.00000187 -0.00000708  0.02841885       0.005
   0.02536384 -0.00001039  0.03617069       0.005
   0.05072580 -0.00001369  0.04392252       0.005
   0.07608777 -0.00001700  0.05167436       0.005
   0.10144973 -0.00002030  0.05942620       0.005
   0.12681170 -0.00002360  0.06717803       0.005
  -0.12680796  0.00000944 -0.01034033       0.005
  -0.10144599  0.00000614 -0.00258850       0.005
  -0.07608403  0.00000283  0.00516334       0.005
  -0.05072206 -0.00000047  0.01291518       0.005
  -0.02536009 -0.00000378  0.02066701       0.005
   0.00000127  0.02670638  0.03314847       0.005
   0.02536323  0.02670307  0.04090030       0.005
   0.05072520  0.02669977  0.04865214       0.005
   0.07608716  0.02669646  0.05640398       0.005
   0.10144913  0.02669316  0.06415581       0.005
   0.12681109  0.02668985  0.07190765       0.005
  -0.12680856  0.02672290 -0.00561072       0.005
  -0.10144660  0.02671959  0.00214112       0.005
  -0.07608463  0.02671629  0.00989296       0.005
  -0.05072267  0.02671299  0.01764479       0.005
  -0.02536070  0.02670968  0.02539663       0.005
   0.00000066  0.05341983  0.03787808       0.005
   0.02536263  0.05341653  0.04562992       0.005
   0.05072459  0.05341322  0.05338176       0.005
   0.07608656  0.05340992  0.06113359       0.005
   0.10144852  0.05340661  0.06888543       0.005
   0.12681049  0.05340331  0.07663727       0.005
  -0.12680917  0.05343636 -0.00088110       0.005
  -0.10144720  0.05343305  0.00687074       0.005
  -0.07608524  0.05342975  0.01462257       0.005
  -0.05072327  0.05342644  0.02237441       0.005
  -0.02536130  0.05342314  0.03012625       0.005
   0.00000006  0.08013329  0.04260770       0.005
   0.02536202  0.08012998  0.05035954       0.005
   0.05072399  0.08012668  0.05811137       0.005
   0.07608595  0.08012337  0.06586321       0.005
   0.10144792  0.08012007  0.07361505       0.005
   0.12680988  0.08011677  0.08136688       0.005
  -0.12680977  0.08014981  0.00384852       0.005
  -0.10144781  0.08014651  0.01160035       0.005
  -0.07608584  0.08014320  0.01935219       0.005
  -0.05072388  0.08013990  0.02710403       0.005
  -0.02536191  0.08013659  0.03485586       0.005
   0.00000308 -0.05343399  0.01895962       0.005
   0.02536505 -0.05343730  0.02671146       0.005
   0.05072701 -0.05344060  0.03446329       0.005
   0.07608898 -0.05344391  0.04221513       0.005
   0.10145094 -0.05344721  0.04996697       0.005
   0.12681291 -0.05345052  0.05771880       0.005
  -0.12680675 -0.05341747 -0.01979956       0.005
  -0.10144478 -0.05342078 -0.01204773       0.005
  -0.07608281 -0.05342408 -0.00429589       0.005
  -0.05072085 -0.05342738  0.00345595       0.005
  -0.02535888 -0.05343069  0.01120778       0.005
   0.00000248 -0.02672054  0.02368923       0.005
   0.02536444 -0.02672384  0.03144107       0.005
   0.05072641 -0.02672715  0.03919291       0.005
   0.07608837 -0.02673045  0.04694474       0.005
   0.10145034 -0.02673376  0.05469658       0.005
   0.12681230 -0.02673706  0.06244842       0.005
  -0.12680735 -0.02670401 -0.01506995       0.005
  -0.10144539 -0.02670732 -0.00731811       0.005
  -0.07608342 -0.02671062  0.00043372       0.005
  -0.05072145 -0.02671393  0.00818556       0.005
  -0.02535949 -0.02671723  0.01593740       0.005
   0.00000374 -0.00001416  0.05683770       0.005
   0.02536571 -0.00001747  0.06458954       0.005
   0.05072767 -0.00002077  0.07234137       0.005
   0.07608964 -0.00002408  0.08009321       0.005
   0.10145160 -0.00002738  0.08784505       0.005
   0.12681357 -0.00003069  0.09559689       0.005
  -0.12680608  0.00000236  0.01807852       0.005
  -0.10144412 -0.00000094  0.02583035       0.005
  -0.07608215 -0.00000425  0.03358219       0.005
  -0.05072019 -0.00000755  0.04133403       0.005
  -0.02535822 -0.00001086  0.04908586       0.005
   0.00000314  0.02669929  0.06156732       0.005
   0.02536510  0.02669599  0.06931915       0.005
   0.05072707  0.02669269  0.07707099       0.005
   0.07608903  0.02668938  0.08482283       0.005
   0.10145100  0.02668608  0.09257466       0.005
   0.12681296  0.02668277  0.10032650       0.005
  -0.12680669  0.02671582  0.02280813       0.005
  -0.10144472  0.02671251  0.03055997       0.005
  -0.07608276  0.02670921  0.03831181       0.005
  -0.05072079  0.02670590  0.04606364       0.005
  -0.02535883  0.02670260  0.05381548       0.005
   0.00000253  0.05341275  0.06629693       0.005
   0.02536450  0.05340945  0.07404877       0.005
   0.05072646  0.05340614  0.08180061       0.005
   0.07608843  0.05340284  0.08955244       0.005
   0.10145039  0.05339953  0.09730428       0.005
   0.12681236  0.05339623  0.10505612       0.005
  -0.12680730  0.05342928  0.02753775       0.005
  -0.10144533  0.05342597  0.03528959       0.005
  -0.07608336  0.05342267  0.04304142       0.005
  -0.05072140  0.05341936  0.05079326       0.005
  -0.02535943  0.05341606  0.05854510       0.005
   0.00000193  0.08012621  0.07102655       0.005
   0.02536389  0.08012290  0.07877839       0.005
   0.05072586  0.08011960  0.08653022       0.005
   0.07608782  0.08011629  0.09428206       0.005
   0.10144979  0.08011299  0.10203390       0.005
   0.12681175  0.08010968  0.10978573       0.005
  -0.12680790  0.08014273  0.03226737       0.005
  -0.10144594  0.08013943  0.04001920       0.005
  -0.07608397  0.08013612  0.04777104       0.005
  -0.05072200  0.08013282  0.05552288       0.005
  -0.02536004  0.08012951  0.06327471       0.005
   0.00000495 -0.05344108  0.04737847       0.005
   0.02536692 -0.05344438  0.05513031       0.005
   0.05072888 -0.05344768  0.06288214       0.005
   0.07609085 -0.05345099  0.07063398       0.005
   0.10145281 -0.05345429  0.07838582       0.005
   0.12681478 -0.05345760  0.08613765       0.005
  -0.12680487 -0.05342455  0.00861929       0.005
  -0.10144291 -0.05342786  0.01637112       0.005
  -0.07608094 -0.05343116  0.02412296       0.005
  -0.05071898 -0.05343447  0.03187480       0.005
  -0.02535701 -0.05343777  0.03962663       0.005
   0.00000435 -0.02672762  0.05210809       0.005
   0.02536631 -0.02673092  0.05985992       0.005
   0.05072828 -0.02673423  0.06761176       0.005
   0.07609024 -0.02673753  0.07536360       0.005
   0.10145221 -0.02674084  0.08311543       0.005
   0.12681417 -0.02674414  0.09086727       0.005
  -0.12680548 -0.02671109  0.01334890       0.005
  -0.10144351 -0.02671440  0.02110074       0.005
  -0.07608155 -0.02671770  0.02885258       0.005
  -0.05071958 -0.02672101  0.03660441       0.005
  -0.02535762 -0.02672431  0.04435625       0.005
   0.00000561 -0.00002124  0.08525655       0.003
   0.02536758 -0.00002455  0.09300839       0.005
   0.05072954 -0.00002785  0.10076023       0.005
   0.07609151 -0.00003116  0.10851206       0.005
   0.10145347 -0.00003446  0.11626390       0.005
   0.12681544 -0.00003777  0.12401574       0.005
   0.00000501  0.02669221  0.08998617       0.005
   0.02536697  0.02668891  0.09773801       0.005
   0.05072894  0.02668560  0.10548984       0.005
   0.07609090  0.02668230  0.11324168       0.005
   0.10145287  0.02667899  0.12099352       0.005
   0.12681483  0.02667569  0.12874535       0.005
  -0.12680482  0.02670874  0.05122698       0.005
  -0.10144285  0.02670543  0.05897882       0.005
  -0.07608089  0.02670213  0.06673066       0.005
  -0.05071892  0.02669882  0.07448250       0.005
  -0.02535696  0.02669552  0.08223433       0.005
   0.00000440  0.05340567  0.09471578       0.005
   0.02536637  0.05340237  0.10246762       0.005
   0.05072833  0.05339906  0.11021946       0.005
   0.07609030  0.05339576  0.11797129       0.005
   0.10145226  0.05339245  0.12572313       0.005
   0.12681423  0.05338915  0.13347497       0.005
  -0.12680542  0.05342219  0.05595660       0.005
  -0.10144346  0.05341889  0.06370844       0.005
  -0.07608149  0.05341558  0.07146027       0.005
  -0.05071953  0.05341228  0.07921211       0.005
  -0.02535756  0.05340898  0.08696395       0.005
   0.00000380  0.08011913  0.09944540       0.003
   0.02536576  0.08011582  0.10719724       0.005
   0.05072773  0.08011252  0.11494907       0.005
   0.07608969  0.08010921  0.12270091       0.005
   0.10145166  0.08010591  0.13045275       0.005
   0.12681362  0.08010260  0.13820458       0.005
 
 k-points in reciprocal lattice and weights: pymatgen v2019.10.16 with grid density =
   0.00000000  0.00000000  0.00000000       0.003
   0.09090909  0.00000000 -0.00000000       0.005
   0.18181818  0.00000000 -0.00000000       0.005
   0.27272727  0.00000000 -0.00000000       0.005
   0.36363636  0.00000000 -0.00000000       0.005
   0.45454545 -0.00000000 -0.00000000       0.005
  -0.00000000  0.16666667 -0.00000000       0.005
   0.09090909  0.16666667 -0.00000000       0.005
   0.18181818  0.16666667 -0.00000000       0.005
   0.27272727  0.16666667 -0.00000000       0.005
   0.36363636  0.16666667 -0.00000000       0.005
   0.45454545  0.16666667  0.00000000       0.005
  -0.45454545  0.16666667  0.00000000       0.005
  -0.36363636  0.16666667  0.00000000       0.005
  -0.27272727  0.16666667  0.00000000       0.005
  -0.18181818  0.16666667 -0.00000000       0.005
  -0.09090909  0.16666667 -0.00000000       0.005
  -0.00000000  0.33333333 -0.00000000       0.005
   0.09090909  0.33333333 -0.00000000       0.005
   0.18181818  0.33333333 -0.00000000       0.005
   0.27272727  0.33333333 -0.00000000       0.005
   0.36363636  0.33333333 -0.00000000       0.005
   0.45454545  0.33333333 -0.00000000       0.005
  -0.45454545  0.33333333 -0.00000000       0.005
  -0.36363636  0.33333333 -0.00000000       0.005
  -0.27272727  0.33333333  0.00000000       0.005
  -0.18181818  0.33333333 -0.00000000       0.005
  -0.09090909  0.33333333 -0.00000000       0.005
  -0.00000000  0.50000000 -0.00000000       0.003
   0.09090909  0.50000000 -0.00000000       0.005
   0.18181818  0.50000000 -0.00000000       0.005
   0.27272727  0.50000000 -0.00000000       0.005
   0.36363636  0.50000000 -0.00000000       0.005
   0.45454545  0.50000000  0.00000000       0.005
  -0.00000000 -0.00000000  0.16666667       0.005
   0.09090909  0.00000000  0.16666667       0.005
   0.18181818  0.00000000  0.16666667       0.005
   0.27272727  0.00000000  0.16666667       0.005
   0.36363636  0.00000000  0.16666667       0.005
   0.45454545  0.00000000  0.16666667       0.005
  -0.45454545 -0.00000000  0.16666667       0.005
  -0.36363636 -0.00000000  0.16666667       0.005
  -0.27272727  0.00000000  0.16666667       0.005
  -0.18181818  0.00000000  0.16666667       0.005
  -0.09090909  0.00000000  0.16666667       0.005
  -0.00000000  0.16666667  0.16666667       0.005
   0.09090909  0.16666667  0.16666667       0.005
   0.18181818  0.16666667  0.16666667       0.005
   0.27272727  0.16666667  0.16666667       0.005
   0.36363636  0.16666667  0.16666667       0.005
   0.45454545  0.16666667  0.16666667       0.005
  -0.45454545  0.16666667  0.16666667       0.005
  -0.36363636  0.16666667  0.16666667       0.005
  -0.27272727  0.16666667  0.16666667       0.005
  -0.18181818  0.16666667  0.16666667       0.005
  -0.09090909  0.16666667  0.16666667       0.005
  -0.00000000  0.33333333  0.16666667       0.005
   0.09090909  0.33333333  0.16666667       0.005
   0.18181818  0.33333333  0.16666667       0.005
   0.27272727  0.33333333  0.16666667       0.005
   0.36363636  0.33333333  0.16666667       0.005
   0.45454545  0.33333333  0.16666667       0.005
  -0.45454545  0.33333333  0.16666667       0.005
  -0.36363636  0.33333333  0.16666667       0.005
  -0.27272727  0.33333333  0.16666667       0.005
  -0.18181818  0.33333333  0.16666667       0.005
  -0.09090909  0.33333333  0.16666667       0.005
  -0.00000000  0.50000000  0.16666667       0.005
   0.09090909  0.50000000  0.16666667       0.005
   0.18181818  0.50000000  0.16666667       0.005
   0.27272727  0.50000000  0.16666667       0.005
   0.36363636  0.50000000  0.16666667       0.005
   0.45454545  0.50000000  0.16666667       0.005
  -0.45454545  0.50000000  0.16666667       0.005
  -0.36363636  0.50000000  0.16666667       0.005
  -0.27272727  0.50000000  0.16666667       0.005
  -0.18181818  0.50000000  0.16666667       0.005
  -0.09090909  0.50000000  0.16666667       0.005
   0.00000000 -0.33333333  0.16666667       0.005
   0.09090909 -0.33333333  0.16666667       0.005
   0.18181818 -0.33333333  0.16666667       0.005
   0.27272727 -0.33333333  0.16666667       0.005
   0.36363636 -0.33333333  0.16666667       0.005
   0.45454545 -0.33333333  0.16666667       0.005
  -0.45454545 -0.33333333  0.16666667       0.005
  -0.36363636 -0.33333333  0.16666667       0.005
  -0.27272727 -0.33333333  0.16666667       0.005
  -0.18181818 -0.33333333  0.16666667       0.005
  -0.09090909 -0.33333333  0.16666667       0.005
   0.00000000 -0.16666667  0.16666667       0.005
   0.09090909 -0.16666667  0.16666667       0.005
   0.18181818 -0.16666667  0.16666667       0.005
   0.27272727 -0.16666667  0.16666667       0.005
   0.36363636 -0.16666667  0.16666667       0.005
   0.45454545 -0.16666667  0.16666667       0.005
  -0.45454545 -0.16666667  0.16666667       0.005
  -0.36363636 -0.16666667  0.16666667       0.005
  -0.27272727 -0.16666667  0.16666667       0.005
  -0.18181818 -0.16666667  0.16666667       0.005
  -0.09090909 -0.16666667  0.16666667       0.005
  -0.00000000 -0.00000000  0.33333333       0.005
   0.09090909 -0.00000000  0.33333333       0.005
   0.18181818  0.00000000  0.33333333       0.005
   0.27272727  0.00000000  0.33333333       0.005
   0.36363636  0.00000000  0.33333333       0.005
   0.45454545 -0.00000000  0.33333333       0.005
  -0.45454545  0.00000000  0.33333333       0.005
  -0.36363636 -0.00000000  0.33333333       0.005
  -0.27272727 -0.00000000  0.33333333       0.005
  -0.18181818 -0.00000000  0.33333333       0.005
  -0.09090909  0.00000000  0.33333333       0.005
  -0.00000000  0.16666667  0.33333333       0.005
   0.09090909  0.16666667  0.33333333       0.005
   0.18181818  0.16666667  0.33333333       0.005
   0.27272727  0.16666667  0.33333333       0.005
   0.36363636  0.16666667  0.33333333       0.005
   0.45454545  0.16666667  0.33333333       0.005
  -0.45454545  0.16666667  0.33333333       0.005
  -0.36363636  0.16666667  0.33333333       0.005
  -0.27272727  0.16666667  0.33333333       0.005
  -0.18181818  0.16666667  0.33333333       0.005
  -0.09090909  0.16666667  0.33333333       0.005
   0.00000000  0.33333333  0.33333333       0.005
   0.09090909  0.33333333  0.33333333       0.005
   0.18181818  0.33333333  0.33333333       0.005
   0.27272727  0.33333333  0.33333333       0.005
   0.36363636  0.33333333  0.33333333       0.005
   0.45454545  0.33333333  0.33333333       0.005
  -0.45454545  0.33333333  0.33333333       0.005
  -0.36363636  0.33333333  0.33333333       0.005
  -0.27272727  0.33333333  0.33333333       0.005
  -0.18181818  0.33333333  0.33333333       0.005
  -0.09090909  0.33333333  0.33333333       0.005
  -0.00000000  0.50000000  0.33333333       0.005
   0.09090909  0.50000000  0.33333333       0.005
   0.18181818  0.50000000  0.33333333       0.005
   0.27272727  0.50000000  0.33333333       0.005
   0.36363636  0.50000000  0.33333333       0.005
   0.45454545  0.50000000  0.33333333       0.005
  -0.45454545  0.50000000  0.33333333       0.005
  -0.36363636  0.50000000  0.33333333       0.005
  -0.27272727  0.50000000  0.33333333       0.005
  -0.18181818  0.50000000  0.33333333       0.005
  -0.09090909  0.50000000  0.33333333       0.005
  -0.00000000 -0.33333333  0.33333333       0.005
   0.09090909 -0.33333333  0.33333333       0.005
   0.18181818 -0.33333333  0.33333333       0.005
   0.27272727 -0.33333333  0.33333333       0.005
   0.36363636 -0.33333333  0.33333333       0.005
   0.45454545 -0.33333333  0.33333333       0.005
  -0.45454545 -0.33333333  0.33333333       0.005
  -0.36363636 -0.33333333  0.33333333       0.005
  -0.27272727 -0.33333333  0.33333333       0.005
  -0.18181818 -0.33333333  0.33333333       0.005
  -0.09090909 -0.33333333  0.33333333       0.005
   0.00000000 -0.16666667  0.33333333       0.005
   0.09090909 -0.16666667  0.33333333       0.005
   0.18181818 -0.16666667  0.33333333       0.005
   0.27272727 -0.16666667  0.33333333       0.005
   0.36363636 -0.16666667  0.33333333       0.005
   0.45454545 -0.16666667  0.33333333       0.005
  -0.45454545 -0.16666667  0.33333333       0.005
  -0.36363636 -0.16666667  0.33333333       0.005
  -0.27272727 -0.16666667  0.33333333       0.005
  -0.18181818 -0.16666667  0.33333333       0.005
  -0.09090909 -0.16666667  0.33333333       0.005
  -0.00000000  0.00000000  0.50000000       0.003
   0.09090909  0.00000000  0.50000000       0.005
   0.18181818  0.00000000  0.50000000       0.005
   0.27272727  0.00000000  0.50000000       0.005
   0.36363636  0.00000000  0.50000000       0.005
   0.45454545  0.00000000  0.50000000       0.005
  -0.00000000  0.16666667  0.50000000       0.005
   0.09090909  0.16666667  0.50000000       0.005
   0.18181818  0.16666667  0.50000000       0.005
   0.27272727  0.16666667  0.50000000       0.005
   0.36363636  0.16666667  0.50000000       0.005
   0.45454545  0.16666667  0.50000000       0.005
  -0.45454545  0.16666667  0.50000000       0.005
  -0.36363636  0.16666667  0.50000000       0.005
  -0.27272727  0.16666667  0.50000000       0.005
  -0.18181818  0.16666667  0.50000000       0.005
  -0.09090909  0.16666667  0.50000000       0.005
  -0.00000000  0.33333333  0.50000000       0.005
   0.09090909  0.33333333  0.50000000       0.005
   0.18181818  0.33333333  0.50000000       0.005
   0.27272727  0.33333333  0.50000000       0.005
   0.36363636  0.33333333  0.50000000       0.005
   0.45454545  0.33333333  0.50000000       0.005
  -0.45454545  0.33333333  0.50000000       0.005
  -0.36363636  0.33333333  0.50000000       0.005
  -0.27272727  0.33333333  0.50000000       0.005
  -0.18181818  0.33333333  0.50000000       0.005
  -0.09090909  0.33333333  0.50000000       0.005
  -0.00000000  0.50000000  0.50000000       0.003
   0.09090909  0.50000000  0.50000000       0.005
   0.18181818  0.50000000  0.50000000       0.005
   0.27272727  0.50000000  0.50000000       0.005
   0.36363636  0.50000000  0.50000000       0.005
   0.45454545  0.50000000  0.50000000       0.005
 
 position of ions in fractional coordinates (direct lattice) 
   0.25002147  0.74858019  0.50001300
   0.49997853  0.50141981  0.99998700
   0.99997375  0.00143151  0.99997867
   0.75002625  0.24856849  0.50002133
   0.37500000  0.12500000  0.75000000
   0.12500047  0.37499660  0.25000504
   0.87500000  0.62500000  0.75000000
   0.62499953  0.87500340  0.24999496
 
 position of ions in cartesian coordinates  (Angst):
   0.00013494  4.15106658  2.93343648
  -0.00022747  2.08996964  5.86509638
   1.79187029 -1.02927602  5.86415234
   1.79223705  1.03165763  2.93259012
  -0.00021517  0.00112931  4.39848921
   0.00003352  2.07994255  1.46671076
   1.79222257  3.12057961  4.39914846
   1.79248599  5.19944569  1.46731093
 


--------------------------------------------------------------------------------------------------------


 k-point  1 :   0.0000 0.0000 0.0000  plane waves:    3539
 k-point  2 :   0.0909 0.0000-0.0000  plane waves:    3538
 k-point  3 :   0.1818 0.0000-0.0000  plane waves:    3549
 k-point  4 :   0.2727 0.0000-0.0000  plane waves:    3535
 k-point  5 :   0.3636 0.0000-0.0000  plane waves:    3532
 k-point  6 :   0.4545-0.0000-0.0000  plane waves:    3531
 k-point  7 :  -0.0000 0.1667-0.0000  plane waves:    3541
 k-point  8 :   0.0909 0.1667-0.0000  plane waves:    3545
 k-point  9 :   0.1818 0.1667-0.0000  plane waves:    3551
 k-point 10 :   0.2727 0.1667-0.0000  plane waves:    3543
 k-point 11 :   0.3636 0.1667-0.0000  plane waves:    3533
 k-point 12 :   0.4545 0.1667 0.0000  plane waves:    3532
 k-point 13 :  -0.4545 0.1667 0.0000  plane waves:    3522
 k-point 14 :  -0.3636 0.1667 0.0000  plane waves:    3528
 k-point 15 :  -0.2727 0.1667 0.0000  plane waves:    3534
 k-point 16 :  -0.1818 0.1667-0.0000  plane waves:    3531
 k-point 17 :  -0.0909 0.1667-0.0000  plane waves:    3541
 k-point 18 :  -0.0000 0.3333-0.0000  plane waves:    3534
 k-point 19 :   0.0909 0.3333-0.0000  plane waves:    3543
 k-point 20 :   0.1818 0.3333-0.0000  plane waves:    3532
 k-point 21 :   0.2727 0.3333-0.0000  plane waves:    3533
 k-point 22 :   0.3636 0.3333-0.0000  plane waves:    3533
 k-point 23 :   0.4545 0.3333-0.0000  plane waves:    3525
 k-point 24 :  -0.4545 0.3333-0.0000  plane waves:    3523
 k-point 25 :  -0.3636 0.3333-0.0000  plane waves:    3525
 k-point 26 :  -0.2727 0.3333 0.0000  plane waves:    3533
 k-point 27 :  -0.1818 0.3333-0.0000  plane waves:    3539
 k-point 28 :  -0.0909 0.3333-0.0000  plane waves:    3547
 k-point 29 :  -0.0000 0.5000-0.0000  plane waves:    3528
 k-point 30 :   0.0909 0.5000-0.0000  plane waves:    3535
 k-point 31 :   0.1818 0.5000-0.0000  plane waves:    3539
 k-point 32 :   0.2727 0.5000-0.0000  plane waves:    3539
 k-point 33 :   0.3636 0.5000-0.0000  plane waves:    3532
 k-point 34 :   0.4545 0.5000 0.0000  plane waves:    3523
 k-point 35 :  -0.0000-0.0000 0.1667  plane waves:    3544
 k-point 36 :   0.0909 0.0000 0.1667  plane waves:    3550
 k-point 37 :   0.1818 0.0000 0.1667  plane waves:    3537
 k-point 38 :   0.2727 0.0000 0.1667  plane waves:    3527
 k-point 39 :   0.3636 0.0000 0.1667  plane waves:    3526
 k-point 40 :   0.4545 0.0000 0.1667  plane waves:    3525
 k-point 41 :  -0.4545-0.0000 0.1667  plane waves:    3528
 k-point 42 :  -0.3636-0.0000 0.1667  plane waves:    3532
 k-point 43 :  -0.2727 0.0000 0.1667  plane waves:    3542
 k-point 44 :  -0.1818 0.0000 0.1667  plane waves:    3552
 k-point 45 :  -0.0909 0.0000 0.1667  plane waves:    3539
 k-point 46 :  -0.0000 0.1667 0.1667  plane waves:    3535
 k-point 47 :   0.0909 0.1667 0.1667  plane waves:    3549
 k-point 48 :   0.1818 0.1667 0.1667  plane waves:    3551
 k-point 49 :   0.2727 0.1667 0.1667  plane waves:    3528
 k-point 50 :   0.3636 0.1667 0.1667  plane waves:    3531
 k-point 51 :   0.4545 0.1667 0.1667  plane waves:    3531
 k-point 52 :  -0.4545 0.1667 0.1667  plane waves:    3530
 k-point 53 :  -0.3636 0.1667 0.1667  plane waves:    3529
 k-point 54 :  -0.2727 0.1667 0.1667  plane waves:    3534
 k-point 55 :  -0.1818 0.1667 0.1667  plane waves:    3551
 k-point 56 :  -0.0909 0.1667 0.1667  plane waves:    3549
 k-point 57 :  -0.0000 0.3333 0.1667  plane waves:    3538
 k-point 58 :   0.0909 0.3333 0.1667  plane waves:    3542
 k-point 59 :   0.1818 0.3333 0.1667  plane waves:    3536
 k-point 60 :   0.2727 0.3333 0.1667  plane waves:    3532
 k-point 61 :   0.3636 0.3333 0.1667  plane waves:    3522
 k-point 62 :   0.4545 0.3333 0.1667  plane waves:    3529
 k-point 63 :  -0.4545 0.3333 0.1667  plane waves:    3524
 k-point 64 :  -0.3636 0.3333 0.1667  plane waves:    3541
 k-point 65 :  -0.2727 0.3333 0.1667  plane waves:    3540
 k-point 66 :  -0.1818 0.3333 0.1667  plane waves:    3534
 k-point 67 :  -0.0909 0.3333 0.1667  plane waves:    3548
 k-point 68 :  -0.0000 0.5000 0.1667  plane waves:    3530
 k-point 69 :   0.0909 0.5000 0.1667  plane waves:    3527
 k-point 70 :   0.1818 0.5000 0.1667  plane waves:    3521
 k-point 71 :   0.2727 0.5000 0.1667  plane waves:    3523
 k-point 72 :   0.3636 0.5000 0.1667  plane waves:    3519
 k-point 73 :   0.4545 0.5000 0.1667  plane waves:    3528
 k-point 74 :  -0.4545 0.5000 0.1667  plane waves:    3531
 k-point 75 :  -0.3636 0.5000 0.1667  plane waves:    3538
 k-point 76 :  -0.2727 0.5000 0.1667  plane waves:    3547
 k-point 77 :  -0.1818 0.5000 0.1667  plane waves:    3537
 k-point 78 :  -0.0909 0.5000 0.1667  plane waves:    3531
 k-point 79 :   0.0000-0.3333 0.1667  plane waves:    3534
 k-point 80 :   0.0909-0.3333 0.1667  plane waves:    3535
 k-point 81 :   0.1818-0.3333 0.1667  plane waves:    3526
 k-point 82 :   0.2727-0.3333 0.1667  plane waves:    3520
 k-point 83 :   0.3636-0.3333 0.1667  plane waves:    3513
 k-point 84 :   0.4545-0.3333 0.1667  plane waves:    3517
 k-point 85 :  -0.4545-0.3333 0.1667  plane waves:    3533
 k-point 86 :  -0.3636-0.3333 0.1667  plane waves:    3535
 k-point 87 :  -0.2727-0.3333 0.1667  plane waves:    3536
 k-point 88 :  -0.1818-0.3333 0.1667  plane waves:    3540
 k-point 89 :  -0.0909-0.3333 0.1667  plane waves:    3544
 k-point 90 :   0.0000-0.1667 0.1667  plane waves:    3538
 k-point 91 :   0.0909-0.1667 0.1667  plane waves:    3535
 k-point 92 :   0.1818-0.1667 0.1667  plane waves:    3529
 k-point 93 :   0.2727-0.1667 0.1667  plane waves:    3522
 k-point 94 :   0.3636-0.1667 0.1667  plane waves:    3512
 k-point 95 :   0.4545-0.1667 0.1667  plane waves:    3518
 k-point 96 :  -0.4545-0.1667 0.1667  plane waves:    3529
 k-point 97 :  -0.3636-0.1667 0.1667  plane waves:    3530
 k-point 98 :  -0.2727-0.1667 0.1667  plane waves:    3538
 k-point 99 :  -0.1818-0.1667 0.1667  plane waves:    3536
 k-point ** :  -0.0909-0.1667 0.1667  plane waves:    3533
 k-point ** :  -0.0000-0.0000 0.3333  plane waves:    3556
 k-point ** :   0.0909-0.0000 0.3333  plane waves:    3558
 k-point ** :   0.1818 0.0000 0.3333  plane waves:    3527
 k-point ** :   0.2727 0.0000 0.3333  plane waves:    3523
 k-point ** :   0.3636 0.0000 0.3333  plane waves:    3524
 k-point ** :   0.4545-0.0000 0.3333  plane waves:    3529
 k-point ** :  -0.4545 0.0000 0.3333  plane waves:    3530
 k-point ** :  -0.3636-0.0000 0.3333  plane waves:    3528
 k-point ** :  -0.2727-0.0000 0.3333  plane waves:    3526
 k-point ** :  -0.1818-0.0000 0.3333  plane waves:    3541
 k-point ** :  -0.0909 0.0000 0.3333  plane waves:    3547
 k-point ** :  -0.0000 0.1667 0.3333  plane waves:    3551
 k-point ** :   0.0909 0.1667 0.3333  plane waves:    3539
 k-point ** :   0.1818 0.1667 0.3333  plane waves:    3532
 k-point ** :   0.2727 0.1667 0.3333  plane waves:    3529
 k-point ** :   0.3636 0.1667 0.3333  plane waves:    3525
 k-point ** :   0.4545 0.1667 0.3333  plane waves:    3526
 k-point ** :  -0.4545 0.1667 0.3333  plane waves:    3531
 k-point ** :  -0.3636 0.1667 0.3333  plane waves:    3533
 k-point ** :  -0.2727 0.1667 0.3333  plane waves:    3536
 k-point ** :  -0.1818 0.1667 0.3333  plane waves:    3553
 k-point ** :  -0.0909 0.1667 0.3333  plane waves:    3543
 k-point ** :   0.0000 0.3333 0.3333  plane waves:    3534
 k-point ** :   0.0909 0.3333 0.3333  plane waves:    3533
 k-point ** :   0.1818 0.3333 0.3333  plane waves:    3528
 k-point ** :   0.2727 0.3333 0.3333  plane waves:    3516
 k-point ** :   0.3636 0.3333 0.3333  plane waves:    3507
 k-point ** :   0.4545 0.3333 0.3333  plane waves:    3523
 k-point ** :  -0.4545 0.3333 0.3333  plane waves:    3531
 k-point ** :  -0.3636 0.3333 0.3333  plane waves:    3533
 k-point ** :  -0.2727 0.3333 0.3333  plane waves:    3536
 k-point ** :  -0.1818 0.3333 0.3333  plane waves:    3538
 k-point ** :  -0.0909 0.3333 0.3333  plane waves:    3534
 k-point ** :  -0.0000 0.5000 0.3333  plane waves:    3532
 k-point ** :   0.0909 0.5000 0.3333  plane waves:    3513
 k-point ** :   0.1818 0.5000 0.3333  plane waves:    3513
 k-point ** :   0.2727 0.5000 0.3333  plane waves:    3518
 k-point ** :   0.3636 0.5000 0.3333  plane waves:    3517
 k-point ** :   0.4545 0.5000 0.3333  plane waves:    3534
 k-point ** :  -0.4545 0.5000 0.3333  plane waves:    3531
 k-point ** :  -0.3636 0.5000 0.3333  plane waves:    3532
 k-point ** :  -0.2727 0.5000 0.3333  plane waves:    3540
 k-point ** :  -0.1818 0.5000 0.3333  plane waves:    3522
 k-point ** :  -0.0909 0.5000 0.3333  plane waves:    3526
 k-point ** :  -0.0000-0.3333 0.3333  plane waves:    3529
 k-point ** :   0.0909-0.3333 0.3333  plane waves:    3528
 k-point ** :   0.1818-0.3333 0.3333  plane waves:    3525
 k-point ** :   0.2727-0.3333 0.3333  plane waves:    3525
 k-point ** :   0.3636-0.3333 0.3333  plane waves:    3507
 k-point ** :   0.4545-0.3333 0.3333  plane waves:    3528
 k-point ** :  -0.4545-0.3333 0.3333  plane waves:    3529
 k-point ** :  -0.3636-0.3333 0.3333  plane waves:    3524
 k-point ** :  -0.2727-0.3333 0.3333  plane waves:    3528
 k-point ** :  -0.1818-0.3333 0.3333  plane waves:    3526
 k-point ** :  -0.0909-0.3333 0.3333  plane waves:    3531
 k-point ** :   0.0000-0.1667 0.3333  plane waves:    3556
 k-point ** :   0.0909-0.1667 0.3333  plane waves:    3544
 k-point ** :   0.1818-0.1667 0.3333  plane waves:    3525
 k-point ** :   0.2727-0.1667 0.3333  plane waves:    3524
 k-point ** :   0.3636-0.1667 0.3333  plane waves:    3526
 k-point ** :   0.4545-0.1667 0.3333  plane waves:    3535
 k-point ** :  -0.4545-0.1667 0.3333  plane waves:    3525
 k-point ** :  -0.3636-0.1667 0.3333  plane waves:    3528
 k-point ** :  -0.2727-0.1667 0.3333  plane waves:    3524
 k-point ** :  -0.1818-0.1667 0.3333  plane waves:    3527
 k-point ** :  -0.0909-0.1667 0.3333  plane waves:    3539
 k-point ** :  -0.0000 0.0000 0.5000  plane waves:    3562
 k-point ** :   0.0909 0.0000 0.5000  plane waves:    3543
 k-point ** :   0.1818 0.0000 0.5000  plane waves:    3529
 k-point ** :   0.2727 0.0000 0.5000  plane waves:    3520
 k-point ** :   0.3636 0.0000 0.5000  plane waves:    3519
 k-point ** :   0.4545 0.0000 0.5000  plane waves:    3525
 k-point ** :  -0.0000 0.1667 0.5000  plane waves:    3539
 k-point ** :   0.0909 0.1667 0.5000  plane waves:    3536
 k-point ** :   0.1818 0.1667 0.5000  plane waves:    3527
 k-point ** :   0.2727 0.1667 0.5000  plane waves:    3524
 k-point ** :   0.3636 0.1667 0.5000  plane waves:    3516
 k-point ** :   0.4545 0.1667 0.5000  plane waves:    3522
 k-point ** :  -0.4545 0.1667 0.5000  plane waves:    3532
 k-point ** :  -0.3636 0.1667 0.5000  plane waves:    3538
 k-point ** :  -0.2727 0.1667 0.5000  plane waves:    3530
 k-point ** :  -0.1818 0.1667 0.5000  plane waves:    3531
 k-point ** :  -0.0909 0.1667 0.5000  plane waves:    3533
 k-point ** :  -0.0000 0.3333 0.5000  plane waves:    3526
 k-point ** :   0.0909 0.3333 0.5000  plane waves:    3521
 k-point ** :   0.1818 0.3333 0.5000  plane waves:    3524
 k-point ** :   0.2727 0.3333 0.5000  plane waves:    3524
 k-point ** :   0.3636 0.3333 0.5000  plane waves:    3519
 k-point ** :   0.4545 0.3333 0.5000  plane waves:    3523
 k-point ** :  -0.4545 0.3333 0.5000  plane waves:    3527
 k-point ** :  -0.3636 0.3333 0.5000  plane waves:    3526
 k-point ** :  -0.2727 0.3333 0.5000  plane waves:    3528
 k-point ** :  -0.1818 0.3333 0.5000  plane waves:    3524
 k-point ** :  -0.0909 0.3333 0.5000  plane waves:    3529
 k-point ** :  -0.0000 0.5000 0.5000  plane waves:    3518
 k-point ** :   0.0909 0.5000 0.5000  plane waves:    3516
 k-point ** :   0.1818 0.5000 0.5000  plane waves:    3515
 k-point ** :   0.2727 0.5000 0.5000  plane waves:    3526
 k-point ** :   0.3636 0.5000 0.5000  plane waves:    3524
 k-point ** :   0.4545 0.5000 0.5000  plane waves:    3528

 maximum and minimum number of plane-waves per node :       902      859

 maximum number of plane-waves:      3562
 maximum index in each direction: 
   IXMAX=    7   IYMAX=   11   IZMAX=   11
   IXMIN=   -7   IYMIN=  -12   IZMIN=  -12


 real space projection operators:
  total allocation   :       9349.38 KBytes
  max/ min on nodes  :       2337.62       2337.06


 parallel 3D FFT for wavefunctions:
    minimum data exchange during FFTs selected (reduces bandwidth)
 parallel 3D FFT for charge:
    minimum data exchange during FFTs selected (reduces bandwidth)


 total amount of memory used by VASP MPI-rank0   210172. kBytes
=======================================================================

   base      :      30000. kBytes
   nonlr-proj:       4082. kBytes
   fftplans  :       2691. kBytes
   grid      :       6547. kBytes
   one-center:        196. kBytes
   wavefun   :     166656. kBytes
 
     INWAV:  cpu time    0.0000: real time    0.0001
 Broyden mixing: mesh for mixing (old mesh)
   NGX = 13   NGY = 23   NGZ = 23
  (NGX  = 56   NGY  = 96   NGZ  = 96)
  gives a total of   6877 points

 initial charge density was supplied:
 charge density of overlapping atoms calculated
 number of electron      92.0000000 magnetization       2.4000000
 keeping initial charge density in first step


--------------------------------------------------------------------------------------------------------


 Maximum index for non-local projection operator         2164
 Maximum index for augmentation-charges         3484 (set IRDMAX)


--------------------------------------------------------------------------------------------------------


 First call to EWALD:  gamma=   0.349
 Maximum number of real-space cells 4x 2x 2
 Maximum number of reciprocal cells 2x 3x 3

    FEWALD:  cpu time    0.0013: real time    0.0013


--------------------------------------- Iteration      1(   1)  ---------------------------------------


    POTLOK:  cpu time    0.0776: real time    0.0892
    SETDIJ:  cpu time    1.0419: real time    1.0443
     EDDAV:  cpu time   39.8690: real time   39.9853
 BZINTS: Fermi energy: 23.817205; 92.000000 electrons
         Band energy: 775.043780;  BLOECHL correction: -2.140171
       DOS:  cpu time    0.1927: real time    0.1932
    --------------------------------------------
      LOOP:  cpu time   41.1812: real time   41.3120

 eigenvalue-minimisations  : 52992
 total energy-change (2. order) : 0.1277745E+04  (-0.3109763E+04)
 number of electron      92.0000000 magnetization       2.4000000
 augmentation part       92.0000000 magnetization       2.4000000

 Free energy of the ion-electron system (eV)
  ---------------------------------------------------
  alpha Z        PSCENC =       906.21123931
  Ewald energy   TEWEN  =     -9706.44275767
  -Hartree energ DENC   =     -2789.95669815
  -exchange      EXHF   =         0.00000000
  -V(xc)+E(xc)   XCENC  =       466.65970822
  PAW double counting   =     10232.67819445   -10815.10853932
  entropy T*S    EENTRO =         0.00000000
  eigenvalues    EBANDS =       775.04378023
  atomic energy  EATOM  =     12208.65988691
  Solvation  Ediel_sol  =         0.00000000
  ---------------------------------------------------
  free energy    TOTEN  =      1277.74481398 eV

  energy without entropy =     1277.74481398  energy(sigma->0) =     1277.74481398


--------------------------------------------------------------------------------------------------------




--------------------------------------- Iteration      1(   2)  ---------------------------------------


     EDDAV:  cpu time   48.7530: real time   48.8703
 BZINTS: Fermi energy: 12.361299; 92.000000 electrons
         Band energy:-163.233644;  BLOECHL correction: -0.231997
       DOS:  cpu time    0.1981: real time    0.1985
    --------------------------------------------
      LOOP:  cpu time   48.9510: real time   49.0688

 eigenvalue-minimisations  : 60736
 total energy-change (2. order) :-0.9382774E+03  (-0.8480065E+03)
 number of electron      92.0000000 magnetization       2.4000000
 augmentation part       92.0000000 magnetization       2.4000000

 Free energy of the ion-electron system (eV)
  ---------------------------------------------------
  alpha Z        PSCENC =       906.21123931
  Ewald energy   TEWEN  =     -9706.44275767
  -Hartree energ DENC   =     -2789.95669815
  -exchange      EXHF   =         0.00000000
  -V(xc)+E(xc)   XCENC  =       466.65970822
  PAW double counting   =     10232.67819445   -10815.10853932
  entropy T*S    EENTRO =         0.00000000
  eigenvalues    EBANDS =      -163.23364391
  atomic energy  EATOM  =     12208.65988691
  Solvation  Ediel_sol  =         0.00000000
  ---------------------------------------------------
  free energy    TOTEN  =       339.46738984 eV

[...]
  0.000  -0.000   0.000   0.000   0.011  -0.000  -0.000  -0.007
  0.001  -0.000  -0.027  -0.001   0.000   0.018   0.001  -0.000
  0.000  -0.000   0.000   0.000  -0.000  -0.000  -0.000   0.001
 pseudopotential strength for first ion, spin component:           2
 -8.681  -4.019  -0.001  -0.002  -0.000   0.000   0.001   0.000
 -4.019  -0.357   0.000   0.001   0.000  -0.000  -0.001  -0.000
 -0.001   0.000 -15.662   0.004  -0.000   7.369  -0.003   0.000
 -0.002   0.001   0.004 -15.666   0.000  -0.003   7.373  -0.000
 -0.000   0.000  -0.000   0.000 -15.668   0.000  -0.000   7.374
  0.000  -0.000   7.369  -0.003   0.000   4.943   0.003  -0.000
  0.001  -0.001  -0.003   7.373  -0.000   0.003   4.940   0.000
  0.000  -0.000   0.000  -0.000   7.374  -0.000   0.000   4.939
 -0.000  -0.000  -0.000  -0.000  -0.000   0.000   0.000   0.000
  0.003  -0.000  -0.001  -0.000  -0.000   0.000   0.000   0.000
 -0.000   0.000   0.000  -0.001   0.000  -0.000   0.000  -0.000
  0.000   0.000  -0.000  -0.000  -0.001   0.000   0.000   0.000
 -0.002   0.000   0.000   0.000  -0.000  -0.000   0.000   0.000
  0.000   0.000   0.000   0.000   0.000  -0.000  -0.000  -0.000
 -0.005   0.001   0.001   0.001   0.000  -0.000  -0.000  -0.000
  0.001   0.000  -0.000   0.001  -0.000   0.000  -0.000   0.000
 -0.000  -0.000   0.000   0.000   0.001  -0.000  -0.000  -0.000
  0.004  -0.000  -0.000  -0.000   0.000   0.000  -0.000  -0.000
  0.000   0.000  -0.001   0.001  -0.000   0.001  -0.005   0.000
 -0.000  -0.000   0.000  -0.000   0.001  -0.000   0.000  -0.007
  0.000  -0.000  -0.001   0.001   0.000   0.003  -0.001  -0.000
  0.000   0.000  -0.000   0.000  -0.000   0.001  -0.004   0.000
 -0.000  -0.000   0.000   0.000  -0.000  -0.000  -0.000   0.003
 -0.000   0.000   0.000  -0.000   0.000  -0.005   0.001  -0.000
 -0.000   0.000   0.000  -0.000  -0.001  -0.000   0.000   0.001
  0.000   0.000  -0.001   0.000  -0.000   0.001  -0.005   0.000
 -0.000  -0.000   0.000  -0.000   0.001  -0.000   0.000  -0.006
 -0.000  -0.000  -0.001   0.001   0.000   0.003  -0.001  -0.000
  0.000   0.000  -0.000  -0.000  -0.000   0.001  -0.004   0.000
 -0.000  -0.000   0.000   0.000   0.000  -0.000  -0.000   0.003
 -0.000   0.000  -0.000  -0.000   0.000  -0.005   0.001  -0.000
  0.000   0.000   0.000  -0.000  -0.001  -0.000   0.000   0.001
 total augmentation occupancy for first ion, spin component:           1
  1.992  -0.037   0.000  -0.000  -0.000   0.000   0.000   0.000   0.000   0.000   0.000   0.000   0.000  -0.000   0.000   0.000
 -0.037   0.605   0.001  -0.000  -0.000  -0.001  -0.000   0.000  -0.000  -0.002   0.000   0.000   0.002  -0.000  -0.001   0.000
  0.000   0.001   2.013  -0.000  -0.000  -0.019   0.001   0.000  -0.000   0.001   0.000   0.000  -0.000   0.000   0.000   0.000
 -0.000  -0.000  -0.000   2.012   0.000   0.001  -0.019  -0.000   0.000   0.001  -0.000  -0.000  -0.001   0.000  -0.000  -0.000
 -0.000  -0.000  -0.000   0.000   2.013   0.000  -0.000  -0.020   0.000   0.000   0.000  -0.001  -0.000  -0.000   0.000   0.000
  0.000  -0.001  -0.019   0.001   0.000   0.020  -0.000  -0.000   0.000  -0.001  -0.000  -0.000   0.001   0.000  -0.000  -0.000
  0.000  -0.000   0.001  -0.019  -0.000  -0.000   0.020   0.000  -0.000  -0.001  -0.000   0.000   0.000  -0.000  -0.000  -0.000
  0.000   0.000   0.000  -0.000  -0.020  -0.000   0.000   0.020  -0.000  -0.000   0.000   0.000   0.000  -0.000  -0.000   0.000
  0.000  -0.000  -0.000   0.000   0.000   0.000  -0.000  -0.000   0.226   0.000   0.000  -0.085   0.000   0.062   0.000   0.000
  0.000  -0.002   0.001   0.001   0.000  -0.001  -0.001  -0.000   0.000   0.286  -0.004  -0.000  -0.080   0.000   0.084  -0.001
  0.000   0.000   0.000  -0.000   0.000  -0.000  -0.000   0.000   0.000  -0.004   0.170   0.000  -0.005   0.000  -0.001   0.041
  0.000   0.000   0.000  -0.000  -0.001  -0.000   0.000   0.000  -0.085  -0.000   0.000   0.287   0.000  -0.031  -0.000   0.000
  0.000   0.002  -0.000  -0.001  -0.000   0.001   0.000   0.000   0.000  -0.080  -0.005   0.000   0.229  -0.000  -0.030  -0.001
 -0.000  -0.000   0.000   0.000  -0.000   0.000  -0.000  -0.000   0.062   0.000   0.000  -0.031  -0.000   0.018   0.000   0.000
  0.000  -0.001   0.000  -0.000   0.000  -0.000  -0.000  -0.000   0.000   0.084  -0.001  -0.000  -0.030   0.000   0.026  -0.000
  0.000   0.000   0.000  -0.000   0.000  -0.000  -0.000   0.000   0.000  -0.001   0.041   0.000  -0.001   0.000  -0.000   0.010
  0.000   0.000  -0.000   0.000  -0.000  -0.000   0.000   0.000  -0.031  -0.000   0.000   0.084   0.000  -0.011  -0.000   0.000
 -0.000   0.001   0.000  -0.000  -0.000   0.000   0.000   0.000  -0.000  -0.030  -0.001   0.000   0.063  -0.000  -0.011  -0.000
 -0.000  -0.003   0.000  -0.120  -0.000  -0.001   0.082   0.000   0.000  -0.003  -0.003   0.000   0.006   0.000  -0.001  -0.001
 -0.000   0.000   0.000  -0.000  -0.148  -0.000   0.000   0.102   0.003   0.000   0.000   0.003  -0.000   0.000  -0.000   0.000
 -0.000   0.009   0.065  -0.002   0.000  -0.045   0.001   0.000  -0.000   0.004   0.007   0.000  -0.003  -0.000   0.001   0.001
 -0.000  -0.004   0.001  -0.108  -0.000  -0.001   0.074   0.000  -0.000  -0.005   0.003  -0.000   0.002  -0.000  -0.001   0.000
 -0.000  -0.000   0.000   0.000   0.065   0.000  -0.000  -0.045  -0.002   0.000  -0.000  -0.002   0.000  -0.000   0.000  -0.000
  0.001  -0.014  -0.145  -0.000   0.000   0.099  -0.001  -0.000  -0.000  -0.009  -0.005   0.000  -0.001  -0.000  -0.002  -0.001
 -0.000  -0.000   0.000  -0.000  -0.001  -0.000  -0.000  -0.000   0.001  -0.000   0.000  -0.006  -0.000   0.000  -0.000   0.000
  0.000   0.001   0.000   0.122   0.000   0.001  -0.076  -0.000   0.000   0.003   0.001  -0.000  -0.006   0.000   0.001   0.000
  0.000  -0.000  -0.000   0.000   0.151   0.000  -0.000  -0.093  -0.001   0.000  -0.000  -0.005   0.000  -0.000   0.000  -0.000
  0.000  -0.008  -0.066   0.002  -0.000   0.041  -0.001  -0.000   0.000  -0.004  -0.005  -0.000   0.002   0.000  -0.001  -0.001
  0.000   0.001  -0.001   0.109   0.000   0.001  -0.068  -0.000   0.000   0.004  -0.001  -0.000  -0.004   0.000   0.001  -0.000
 -0.000   0.000  -0.000  -0.000  -0.066  -0.000   0.000   0.041  -0.001  -0.000   0.000   0.003  -0.000  -0.000  -0.000   0.000
 -0.001   0.013   0.148   0.000  -0.000  -0.091   0.001   0.000   0.000   0.008   0.002   0.000   0.001  -0.000   0.002   0.000
  0.000   0.000  -0.000   0.000   0.001   0.000   0.000   0.000  -0.000   0.000  -0.000   0.005   0.000  -0.000   0.000  -0.000
 total augmentation occupancy for first ion, spin component:           2
  0.042   0.159  -0.000   0.000   0.000   0.000  -0.000  -0.000   0.000  -0.000   0.000  -0.000   0.000  -0.000  -0.000   0.000
  0.159  -0.129  -0.001  -0.001   0.000   0.001   0.001  -0.000   0.000  -0.001  -0.002  -0.000  -0.004   0.000  -0.000  -0.000
 -0.000  -0.001   0.008  -0.000  -0.000   0.044   0.000  -0.000  -0.000  -0.000  -0.001   0.000   0.001   0.000  -0.000  -0.000
  0.000  -0.001  -0.000   0.008  -0.000   0.000   0.044   0.000  -0.000  -0.001  -0.000  -0.000  -0.001  -0.000  -0.000  -0.000
  0.000   0.000  -0.000  -0.000   0.008  -0.000   0.000   0.044  -0.001  -0.000  -0.000  -0.001  -0.000  -0.000  -0.000  -0.000
  0.000   0.001   0.044   0.000  -0.000  -0.003   0.000   0.000   0.000   0.000   0.001  -0.000  -0.001   0.000   0.000   0.000
 -0.000   0.001   0.000   0.044   0.000   0.000  -0.003  -0.000   0.000   0.001   0.000   0.000   0.001   0.000   0.000   0.000
 -0.000  -0.000  -0.000   0.000   0.044   0.000  -0.000  -0.003   0.001   0.000  -0.000   0.001   0.000   0.000   0.000  -0.000
  0.000   0.000  -0.000  -0.000  -0.001   0.000   0.000   0.001  -0.032  -0.000  -0.000   0.009  -0.000  -0.009  -0.000  -0.000
 -0.000  -0.001  -0.000  -0.001  -0.000   0.000   0.001   0.000  -0.000  -0.042   0.007   0.000   0.002  -0.000  -0.012   0.001
  0.000  -0.002  -0.001  -0.000  -0.000   0.001   0.000  -0.000  -0.000   0.007  -0.035  -0.000   0.012  -0.000   0.001  -0.008
 -0.000  -0.000   0.000  -0.000  -0.001  -0.000   0.000   0.001   0.009   0.000  -0.000  -0.040  -0.000   0.003   0.000  -0.000
  0.000  -0.004   0.001  -0.001  -0.000  -0.001   0.001   0.000  -0.000   0.002   0.012  -0.000  -0.042  -0.000   0.002   0.002
 -0.000   0.000   0.000  -0.000  -0.000   0.000   0.000   0.000  -0.009  -0.000  -0.000   0.003  -0.000  -0.002  -0.000  -0.000
 -0.000  -0.000  -0.000  -0.000  -0.000   0.000   0.000   0.000  -0.000  -0.012   0.001   0.000   0.002  -0.000  -0.003   0.000
  0.000  -0.000  -0.000  -0.000  -0.000   0.000   0.000  -0.000  -0.000   0.001  -0.008  -0.000   0.002  -0.000   0.000  -0.002
 -0.000  -0.000  -0.000  -0.000  -0.000  -0.000   0.000   0.000   0.003   0.000  -0.000  -0.011  -0.000   0.001   0.000  -0.000
  0.000  -0.001   0.000  -0.000   0.000  -0.000   0.000   0.000  -0.000   0.002   0.002  -0.000  -0.010   0.000   0.001   0.000
 -0.000   0.005  -0.000   0.013   0.000   0.001  -0.024  -0.000  -0.000  -0.010   0.006  -0.000  -0.012  -0.000  -0.002   0.001
 -0.000  -0.000   0.000   0.000   0.014   0.000  -0.000  -0.029  -0.012  -0.000  -0.000  -0.002  -0.000  -0.002  -0.000  -0.000
 -0.000  -0.008  -0.006  -0.002   0.000   0.015  -0.001  -0.000  -0.000   0.001  -0.014  -0.000   0.005   0.000   0.000  -0.002
 -0.000   0.006  -0.000   0.011   0.000  -0.000  -0.021  -0.000  -0.000  -0.000  -0.008   0.000   0.001  -0.000   0.000  -0.002
  0.000  -0.000  -0.000   0.000  -0.008   0.000  -0.000   0.012   0.002  -0.000   0.000  -0.006  -0.000   0.000  -0.000   0.000
  0.000  -0.001   0.016  -0.001   0.000  -0.030   0.001  -0.000   0.000   0.012  -0.002  -0.000   0.004   0.000   0.002  -0.000
 -0.000   0.000   0.000  -0.000   0.001  -0.000   0.000   0.002  -0.002   0.000  -0.000   0.003   0.000  -0.000   0.000  -0.000
  0.000  -0.003   0.001   0.002   0.000  -0.001   0.010   0.000   0.000   0.012  -0.004   0.000   0.014   0.000   0.002  -0.001
  0.000   0.000  -0.000   0.000   0.004  -0.000   0.000   0.012   0.012   0.000   0.000   0.005   0.000   0.002   0.000   0.000
  0.000   0.007  -0.001   0.002  -0.000  -0.007   0.001   0.000   0.000  -0.002   0.014   0.000  -0.005   0.000  -0.000   0.003
  0.000  -0.004   0.000   0.002   0.000   0.000   0.009   0.000   0.000   0.002   0.007  -0.000   0.000   0.000   0.000   0.001
 -0.000   0.000  -0.000  -0.000   0.000  -0.000   0.000  -0.005   0.001  -0.000  -0.000   0.007   0.000   0.000  -0.000  -0.000
 -0.000   0.005   0.001   0.001  -0.000   0.013  -0.001   0.000  -0.000  -0.011   0.007   0.000  -0.005  -0.000  -0.002   0.001
  0.000  -0.000  -0.000   0.000  -0.001   0.000  -0.000  -0.003   0.001  -0.000   0.000  -0.002  -0.000   0.000  -0.000   0.000


------------------------ aborting loop because EDIFF is reached ----------------------------------------


 


 total charge     
 
# of ion       s       p       d       f       tot
--------------------------------------------------
    1        2.083   5.888   0.611   6.723  15.306
    2        2.083   5.888   0.611   6.723  15.306
    3        2.083   5.888   0.612   6.723  15.306
    4        2.083   5.888   0.612   6.723  15.306
    5        1.556   3.407   0.000   0.000   4.963
    6        1.555   3.408   0.000   0.000   4.963
    7        1.556   3.407   0.000   0.000   4.963
    8        1.555   3.408   0.000   0.000   4.963
--------------------------------------------------
tot         14.555  37.182   2.446  26.891  81.074

 


 magnetization (x)
 
# of ion       s       p       d       f       tot
--------------------------------------------------
    1        0.006   0.010  -0.100  -6.617  -6.700
    2        0.006   0.010  -0.100  -6.617  -6.700
    3       -0.006  -0.010   0.100   6.616   6.699
    4       -0.006  -0.010   0.100   6.616   6.699
    5       -0.002  -0.034   0.000   0.000  -0.035
    6        0.000  -0.000   0.000   0.000  -0.000
    7        0.002   0.034   0.000   0.000   0.035
    8        0.000  -0.000   0.000   0.000  -0.000
--------------------------------------------------
tot          0.000  -0.000   0.000  -0.001  -0.001

 
    CHARGE:  cpu time    1.8376: real time    1.8419
    FORLOC:  cpu time    0.0040: real time    0.0040
    FORNL :  cpu time   11.7093: real time   11.7369
    STRESS:  cpu time   34.8908: real time   34.9730
    FORCOR:  cpu time    0.0822: real time    0.0824
    FORHAR:  cpu time    0.0099: real time    0.0099
    MIXING:  cpu time    0.0043: real time    0.0043
    OFIELD:  cpu time    0.0001: real time    0.0001

  FORCE on cell =-STRESS in cart. coord.  units (eV):
  Direction    XX          YY          ZZ          XY          YZ          ZX
  --------------------------------------------------------------------------------------
  Alpha Z   906.21124   906.21124   906.21124
  Ewald   -3229.45649 -3241.54771 -3235.45018    -0.28266    -9.13725     0.40259
  Hartree   922.28011   915.47554   918.76657    -0.17696    -5.78643     0.25371
  E(xc)    -488.32099  -488.36761  -488.33905    -0.00066    -0.02554     0.00095
  Local     836.03230   854.55346   845.44268     0.47051    15.07968    -0.67311
  n-local  -453.02820  -452.77745  -453.01636     0.00346     0.07340    -0.00347
  augment   192.71562   193.10504   192.82526    -0.00399     0.19006     0.00695
  Kinetic  1313.24818  1313.07923  1313.22986    -0.01649    -0.45328     0.02068
  Fock        0.00000     0.00000     0.00000     0.00000     0.00000     0.00000
  -------------------------------------------------------------------------------------
  Total      -0.31824    -0.26826    -0.32996    -0.00678    -0.05938     0.00830
  in kB      -3.88762    -3.27710    -4.03089    -0.08284    -0.72534     0.10138
  external pressure =       -3.73 kB  Pullay stress =        0.00 kB


 VOLUME and BASIS-vectors are now :
 -----------------------------------------------------------------------------
  energy-cutoff  :      520.00
  volume of cell :      131.15
      direct lattice vectors                 reciprocal lattice vectors
     3.584537679  0.000122994 -0.000235950     0.278981619 -0.000036352  0.085270204
     0.000337813  6.238777601  0.001554449    -0.000003632  0.160280740  0.028377697
    -1.792612040 -1.038352020  5.864511176     0.000011225 -0.000042486  0.170513105

  length of vectors
     3.584537689  6.238777804  6.219656274     0.291722047  0.162773491  0.170513110


 FORCES acting on ions
    electron-ion (+dipol)            ewald-force                    non-local-force                 convergence-correction
 -----------------------------------------------------------------------------------------------
   0.142E-01 -.228E+01 0.262E+00   -.127E-01 0.227E+01 -.170E+00   -.125E-02 -.579E-02 -.107E+00   0.364E-05 0.482E-02 0.229E-02
   -.142E-01 0.228E+01 -.262E+00   0.127E-01 -.227E+01 0.170E+00   0.125E-02 0.579E-02 0.107E+00   -.364E-05 -.482E-02 -.229E-02
   -.175E-01 0.237E+01 -.276E+00   0.159E-01 -.237E+01 0.181E+00   0.126E-02 0.515E-02 0.108E+00   0.125E-03 0.419E-02 0.135E-02
   0.175E-01 -.237E+01 0.276E+00   -.159E-01 0.237E+01 -.181E+00   -.126E-02 -.515E-02 -.108E+00   -.125E-03 -.419E-02 -.135E-02
   0.237E-11 0.526E-10 -.177E-11   -.876E-14 0.234E-12 0.355E-14   -.265E-22 0.000E+00 0.529E-22   0.457E-13 0.207E-14 0.623E-14
   -.182E-02 -.753E-02 -.157E-01   0.187E-02 0.134E-01 0.149E-01   0.281E-03 -.643E-04 -.273E-03   0.408E-04 -.597E-02 0.136E-02
   0.508E-11 0.490E-10 -.324E-12   0.115E-14 0.153E-12 -.888E-14   0.000E+00 -.199E-22 0.000E+00   -.784E-14 0.106E-13 0.261E-13
   0.182E-02 0.753E-02 0.157E-01   -.187E-02 -.134E-01 -.149E-01   -.281E-03 0.643E-04 0.273E-03   -.408E-04 0.597E-02 -.136E-02
 -----------------------------------------------------------------------------------------------
   0.150E-10 0.422E-09 -.190E-10   0.654E-14 -.270E-13 0.151E-13   -.542E-19 -.271E-19 0.000E+00   -.950E-13 -.397E-12 0.168E-13
 
 
 POSITION                                       TOTAL-FORCE (eV/Angst)
 -----------------------------------------------------------------------------------
      0.00013      4.15107      2.93344         0.000239     -0.002529     -0.013154
     -0.00023      2.08997      5.86510        -0.000239      0.002529      0.013154
      1.79187     -1.02928      5.86415        -0.000209      0.001356      0.013348
      1.79224      1.03166      2.93259         0.000209     -0.001356     -0.013348
     -0.00022      0.00113      4.39849        -0.000000     -0.000000     -0.000000
      0.00003      2.07994      1.46671         0.000370     -0.000133      0.000348
      1.79222      3.12058      4.39915        -0.000000     -0.000000     -0.000000
      1.79249      5.19945      1.46731        -0.000370      0.000133     -0.000348
 -----------------------------------------------------------------------------------
    total drift:                                0.000000      0.000000     -0.000000


--------------------------------------------------------------------------------------------------------



  FREE ENERGIE OF THE ION-ELECTRON SYSTEM (eV)
  ---------------------------------------------------
  free  energy   TOTEN  =       -83.25052695 eV

  energy  without entropy=      -83.25052695  energy(sigma->0) =      -83.25052695
 


--------------------------------------------------------------------------------------------------------


    POTLOK:  cpu time    1.2427: real time    1.2456


--------------------------------------------------------------------------------------------------------


     LOOP+:  cpu time 1360.8825: real time 1364.1814
    4ORBIT:  cpu time    0.0000: real time    0.0000
 


 total charge     
 
# of ion       s       p       d       f       tot
--------------------------------------------------
    1        2.083   5.888   0.611   6.723  15.306
    2        2.083   5.888   0.611   6.723  15.306
    3        2.083   5.888   0.612   6.723  15.306
    4        2.083   5.888   0.612   6.723  15.306
    5        1.556   3.407   0.000   0.000   4.963
    6        1.555   3.408   0.000   0.000   4.963
    7        1.556   3.407   0.000   0.000   4.963
    8        1.555   3.408   0.000   0.000   4.963
--------------------------------------------------
tot         14.555  37.182   2.446  26.891  81.074

 


 magnetization (x)
 
# of ion       s       p       d       f       tot
--------------------------------------------------
    1        0.006   0.010  -0.100  -6.617  -6.700
    2        0.006   0.010  -0.100  -6.617  -6.700
    3       -0.006  -0.010   0.100   6.616   6.699
    4       -0.006  -0.010   0.100   6.616   6.699
    5       -0.002  -0.034   0.000   0.000  -0.035
    6        0.000  -0.000   0.000   0.000  -0.000
    7        0.002   0.034   0.000   0.000   0.035
    8        0.000  -0.000   0.000   0.000  -0.000
--------------------------------------------------
tot          0.000  -0.000   0.000  -0.001  -0.001

 
 BZINTS: Fermi energy:  4.858429; 92.000000 electrons
         Band energy:-584.058127;  BLOECHL correction: -0.003920

 total amount of memory used by VASP MPI-rank0   210172. kBytes
=======================================================================

   base      :      30000. kBytes
   nonlr-proj:       4082. kBytes
   fftplans  :       2691. kBytes
   grid      :       6547. kBytes
   one-center:        196. kBytes
   wavefun   :     166656. kBytes
 
  
  
 General timing and accounting informations for this job:
 ========================================================
  
                  Total CPU time used (sec):     1373.383
                            User time (sec):     1370.609
                          System time (sec):        2.774
                         Elapsed time (sec):     1377.375
  
                   Maximum memory used (kb):      272260.
                   Average memory used (kb):           0.
  
                          Minor page faults:        92271
                          Major page faults:            0
                 Voluntary context switches:          208
