=========================================
SLURM_JOB_ID = 43763075
SLURM_JOB_NODELIST = lnode16
SLURM_GPUS = 
SLURM_CPUS_ON_NODE = 8
SLURM_JOB_PARTITION = lenovo
SLURM_TASK_PID = 2118361
CUDA_VISIBLE_DEVICES = 
==========================================
 running on    8 total cores
 distrk:  each k-point on    8 cores,    1 groups
 distr:  one band on    4 cores,    2 groups
 using from now: INCAR     
 vasp.5.4.4.18Apr17-6-g9f103f2a35 (build Apr 28 2018 00:24:27) complex          
  
 POSCAR found type information on POSCAR  Fe
 POSCAR found :  1 types and       4 ions
 scaLAPACK will be used

 ----------------------------------------------------------------------------- 
|                                                                             |
|  ADVICE TO THIS USER RUNNING 'VASP/VAMP'   (HEAR YOUR MASTER'S VOICE ...):  |
|                                                                             |
|      You have a (more or less) 'small supercell' and for smaller cells      |
|      it is recommended  to use the reciprocal-space projection scheme!      |
|      The real space optimization is not  efficient for small cells and it   |
|      is also less accurate ...                                              |
|      Therefore set LREAL=.FALSE. in the  INCAR file                         |
|                                                                             |
 ----------------------------------------------------------------------------- 

 LDA part: xc-table for Pade appr. of Perdew
 POSCAR, INCAR and KPOINTS ok, starting setup
 FFT: planning ...
 WAVECAR not read
 entering main loop
       N       E                     dE             d eps       ncg     rms          rms(c)
DAV:   1     0.746191380028E+03    0.74619E+03   -0.33025E+04 20498   0.265E+03
DAV:   2     0.453280190432E+02   -0.70086E+03   -0.68764E+03 19594   0.705E+02
DAV:   3    -0.142564424974E+02   -0.59584E+02   -0.58219E+02 21356   0.214E+02
DAV:   4    -0.160509835348E+02   -0.17945E+01   -0.17795E+01 22312   0.382E+01
DAV:   5    -0.160909079445E+02   -0.39924E-01   -0.39876E-01 23636   0.587E+00    0.314E+01
DAV:   6    -0.140299905745E+02    0.20609E+01   -0.31055E+01 20204   0.562E+01    0.158E+01
DAV:   7    -0.155567520249E+02   -0.15268E+01   -0.32049E+00 22066   0.153E+01    0.808E+00
DAV:   8    -0.157314468040E+02   -0.17469E+00   -0.47330E-01 22016   0.544E+00    0.273E+00
DAV:   9    -0.158352444199E+02   -0.10380E+00   -0.37969E-01 22564   0.258E+00    0.100E+00
DAV:  10    -0.158909421597E+02   -0.55698E-01   -0.15989E-01 25644   0.154E+00    0.102E+00
DAV:  11    -0.159197240348E+02   -0.28782E-01   -0.43866E-02 21912   0.784E-01    0.111E+00
DAV:  12    -0.158764651165E+02    0.43259E-01   -0.75203E-01 26196   0.337E+00    0.917E-01
DAV:  13    -0.158904835296E+02   -0.14018E-01   -0.43933E-02 22376   0.109E+00    0.838E-01
DAV:  14    -0.159038301892E+02   -0.13347E-01   -0.62026E-02 22878   0.115E+00    0.453E-01
DAV:  15    -0.159109725522E+02   -0.71424E-02   -0.72301E-02 22592   0.125E+00    0.151E-01
DAV:  16    -0.159108458430E+02    0.12671E-03   -0.60927E-03 23068   0.491E-01    0.148E-01
DAV:  17    -0.159104999400E+02    0.34590E-03   -0.21446E-03 27002   0.197E-01    0.107E-01
DAV:  18    -0.159102191037E+02    0.28084E-03   -0.23898E-03 22944   0.214E-01    0.615E-02
DAV:  19    -0.159100823229E+02    0.13678E-03   -0.75279E-03 25320   0.346E-01    0.167E-02
DAV:  20    -0.159101172895E+02   -0.34967E-04   -0.25285E-04 20152   0.148E-01    0.115E-02
DAV:  21    -0.159101190239E+02   -0.17344E-05   -0.34547E-06 15664   0.193E-02    0.851E-03
DAV:  22    -0.159101183141E+02    0.70980E-06   -0.55280E-06 11688   0.156E-02
   1 F= -.15910118E+02 E0= -.15910118E+02  d E =0.000000E+00  mag=    -0.0000
