       N       E                     dE             d eps       ncg     rms          rms(c)
DAV:   1     0.196153464764E+03    0.19615E+03   -0.17044E+04  3528   0.179E+03
DAV:   2    -0.105658562481E+02   -0.20672E+03   -0.19850E+03  3396   0.374E+02
DAV:   3    -0.162265280428E+02   -0.56607E+01   -0.56492E+01  3780   0.701E+01
DAV:   4    -0.162713548924E+02   -0.44827E-01   -0.44832E-01  3792   0.588E+00
DAV:   5    -0.162721731574E+02   -0.81827E-03   -0.81828E-03  3792   0.737E-01    0.250E+01
DAV:   6    -0.164539209293E+02   -0.18175E+00   -0.74968E+00  3420   0.394E+01    0.691E+00
DAV:   7    -0.165099241707E+02   -0.56003E-01   -0.61192E-01  3408   0.951E+00    0.430E+00
DAV:   8    -0.165198500856E+02   -0.99259E-02   -0.14761E-02  3708   0.143E+00    0.137E+00
DAV:   9    -0.165116390962E+02    0.82110E-02   -0.51049E-03  3624   0.862E-01    0.337E-01
DAV:  10    -0.165114637826E+02    0.17531E-03   -0.22520E-03  3432   0.607E-01    0.439E-02
DAV:  11    -0.165115229460E+02   -0.59163E-04   -0.47506E-05  3636   0.627E-02    0.242E-02
DAV:  12    -0.165115308654E+02   -0.79195E-05   -0.46416E-06  3852   0.213E-02    0.953E-03
DAV:  13    -0.165115241081E+02    0.67573E-05   -0.13157E-06  3504   0.111E-02    0.238E-03
DAV:  14    -0.165115226454E+02    0.14627E-05   -0.14570E-07  2640   0.315E-03    0.600E-04
DAV:  15    -0.165115226699E+02   -0.24597E-07   -0.11561E-08  1740   0.110E-03
   1 F= -.16511523E+02 E0= -.16511523E+02  d E =0.000000E+00  mag=     4.4056
