 vasp.5.4.4.18Apr17-6-g9f103f2a35 (build Apr 28 2018 00:24:27) complex          
  
 executed on             LinuxIFC date 2021.09.07  01:11:26
 running on   24 total cores
 distrk:  each k-point on   24 cores,    1 groups
 distr:  one band on NCORES_PER_BAND=   4 cores,    6 groups


--------------------------------------------------------------------------------------------------------


 INCAR:
 POTCAR:    PAW_PBE Fe_pv 02Aug2007               
 POTCAR:    PAW_PBE Fe_pv 02Aug2007               
   VRHFIN =Fe:  3pd7s1                                                          
   LEXCH  = PE                                                                  
   EATOM  =  2457.4239 eV,  180.6156 Ry                                         
                                                                                
   TITEL  = PAW_PBE Fe_pv 02Aug2007                                             
   LULTRA =        F    use ultrasoft PP ?                                      
   IUNSCR =        1    unscreen: 0-lin 1-nonlin 2-no                           
   RPACOR =    1.750    partial core radius                                     
   POMASS =   55.847; ZVAL   =   14.000    mass and valenz                      
   RCORE  =    2.200    outmost cutoff radius                                   
   RWIGS  =    2.200; RWIGS  =    1.164    wigner-seitz radius (au A)           
   ENMAX  =  293.238; ENMIN  =  219.928 eV                                      
   ICORE  =        3    local potential                                         
   LCOR   =        T    correct aug charges                                     
   LPAW   =        T    paw PP                                                  
   EAUG   =  578.342                                                            
   DEXC   =    0.000                                                            
   RMAX   =    2.249    core radius for proj-oper                               
   RAUG   =    1.300    factor for augmentation sphere                          
   RDEP   =    2.296    radius for radial grids                                 
   RDEPT  =    1.766    core radius for aug-charge                              
                                                                                
   Atomic configuration                                                         
    8 entries                                                                   
     n  l   j            E        occ.                                          
     1  0  0.50     -6993.8440   2.0000                                         
     2  0  0.50      -814.6047   2.0000                                         
     2  1  1.50      -693.3689   6.0000                                         
     3  0  0.50       -89.4732   2.0000                                         
     3  1  1.50       -55.6373   6.0000                                         
     3  2  2.50        -3.8151   7.0000                                         
     4  0  0.50        -4.2551   1.0000                                         
     4  3  2.50        -1.3606   0.0000                                         
   Description                                                                  
     l       E           TYP  RCUT    TYP  RCUT                                 
     1    -55.6372668     23  2.000                                             
     1     -5.4423304     23  2.000                                             
     2     -3.8151096     23  2.200                                             
     2     -5.1756922     23  2.200                                             
     0     -4.2550951     23  2.200                                             
     0     27.2116520     23  2.200                                             
     3     -1.3605826     23  2.200                                             
  local pseudopotential read in
  partial core-charges read in
  partial kinetic energy density read in
  atomic valenz-charges read in
  non local Contribution for L=           1  read in
    real space projection operators read in
  non local Contribution for L=           1  read in
    real space projection operators read in
  non local Contribution for L=           2  read in
    real space projection operators read in
  non local Contribution for L=           2  read in
    real space projection operators read in
  non local Contribution for L=           0  read in
    real space projection operators read in
  non local Contribution for L=           0  read in
    real space projection operators read in
    PAW grid and wavefunctions read in
 
   number of l-projection  operators is LMAX  =           6
   number of lm-projection operators is LMMAX =          18
 

 ----------------------------------------------------------------------------- 
|                                                                             |
|  ADVICE TO THIS USER RUNNING 'VASP/VAMP'   (HEAR YOUR MASTER'S VOICE ...):  |
|                                                                             |
|      You have a (more or less) 'small supercell' and for smaller cells      |
|      it is recommended  to use the reciprocal-space projection scheme!      |
|      The real space optimization is not  efficient for small cells and it   |
|      is also less accurate ...                                              |
|      Therefore set LREAL=.FALSE. in the  INCAR file                         |
|                                                                             |
 ----------------------------------------------------------------------------- 

 Optimization of the real space projectors (new method)

 maximal supplied QI-value         = 17.01
 optimisation between [QCUT,QGAM] = [ 11.05, 22.28] = [ 34.22,139.00] Ry 
 Optimized for a Real-space Cutoff    1.50 Angstroem

   l    n(q)    QCUT    max X(q) W(low)/X(q) W(high)/X(q)  e(spline) 
   1     10    11.055     4.267    0.72E-04    0.47E-04    0.19E-06
   1     10    11.055     5.750    0.11E-03    0.60E-04    0.25E-06
   2      9    11.055    53.656    0.10E-03    0.38E-05    0.16E-06
   2      9    11.055    49.521    0.10E-03    0.39E-05    0.16E-06
   0     10    11.055    31.246    0.52E-04    0.13E-04    0.10E-06
   0     10    11.055    12.201    0.36E-04    0.10E-04    0.88E-07
  PAW_PBE Fe_pv 02Aug2007               :
 energy of atom  1       EATOM=-2457.4239
 kinetic energy error for atom=    0.0088 (will be added to EATOM!!)
 
 
 POSCAR: Fe2                                     
  positions in direct lattice
  No initial velocities read in
 exchange correlation table for  LEXCH =        8
   RHO(1)=    0.500       N(1)  =     2000
   RHO(2)=  100.500       N(2)  =     4000
 


--------------------------------------------------------------------------------------------------------


 ion  position               nearest neighbor table
   1  0.000  0.000  0.000-   2 2.46   2 2.46   2 2.46   2 2.46   2 2.46   2 2.46   2 2.46   2 2.46

   2  0.500  0.500  0.500-   1 2.46   1 2.46   1 2.46   1 2.46   1 2.46   1 2.46   1 2.46   1 2.46

 
  LATTYP: Found a simple cubic cell.
 ALAT       =     2.8400520000
  
  Lattice vectors:
  
 A1 = (   2.8400520000,   0.0000000000,   0.0000000000)
 A2 = (   0.0000000000,   2.8400520000,   0.0000000000)
 A3 = (   0.0000000000,   0.0000000000,   2.8400520000)


Analysis of symmetry for initial positions (statically):
=====================================================================
 Subroutine PRICEL returns following result:
 
  LATTYP: Found a body centered cubic cell.
 ALAT       =     2.8400520000
  
  Lattice vectors:
  
 A1 = (   1.4200260000,   1.4200260000,   1.4200260000)
 A2 = (   1.4200260000,  -1.4200260000,  -1.4200260000)
 A3 = (  -1.4200260000,   1.4200260000,  -1.4200260000)
 
   2 primitive cells build up your supercell.
 

 Routine SETGRP: Setting up the symmetry group for a 
 simple cubic supercell.


 Subroutine GETGRP returns: Found 48 space group operations
 (whereof 48 operations were pure point group operations)
 out of a pool of 48 trial point group operations.


The static configuration has the point symmetry O_h .


Analysis of symmetry for dynamics (positions and initial velocities):
=====================================================================
 Subroutine PRICEL returns following result:
 
  LATTYP: Found a body centered cubic cell.
 ALAT       =     2.8400520000
  
  Lattice vectors:
  
 A1 = (   1.4200260000,   1.4200260000,   1.4200260000)
 A2 = (   1.4200260000,  -1.4200260000,  -1.4200260000)
 A3 = (  -1.4200260000,   1.4200260000,  -1.4200260000)
 
   2 primitive cells build up your supercell.
 

 Routine SETGRP: Setting up the symmetry group for a 
 simple cubic supercell.


 Subroutine GETGRP returns: Found 48 space group operations
 (whereof 48 operations were pure point group operations)
 out of a pool of 48 trial point group operations.


The dynamic configuration has the point symmetry O_h .


Analysis of structural, dynamic, and magnetic symmetry:
=====================================================================
 Subroutine PRICEL returns following result:
 
  LATTYP: Found a body centered cubic cell.
 ALAT       =     2.8400520000
  
  Lattice vectors:
  
 A1 = (   1.4200260000,   1.4200260000,   1.4200260000)
 A2 = (   1.4200260000,  -1.4200260000,  -1.4200260000)
 A3 = (  -1.4200260000,   1.4200260000,  -1.4200260000)
 
   2 primitive cells build up your supercell.
 

 Routine SETGRP: Setting up the symmetry group for a 
 simple cubic supercell.


 Subroutine GETGRP returns: Found 48 space group operations
 (whereof 48 operations were pure point group operations)
 out of a pool of 48 trial point group operations.


The magnetic configuration has the point symmetry O_h .


 Subroutine INISYM returns: Found 48 space group operations
 (whereof 48 operations are pure point group operations),
 and found     2 'primitive' translations

 
 
 KPOINTS: pymatgen with grid density = 2166 / numb

Automatic generation of k-mesh.
Space group operators:
 irot       det(A)        alpha          n_x          n_y          n_z        tau_x        tau_y        tau_z
    1     1.000000     0.000000     1.000000     0.000000     0.000000     0.000000     0.000000     0.000000
    2    -1.000000     0.000000     1.000000     0.000000     0.000000     0.000000     0.000000     0.000000
    3     1.000000   120.000000    -0.577350    -0.577350    -0.577350     0.000000     0.000000     0.000000
    4    -1.000000   120.000000    -0.577350    -0.577350    -0.577350     0.000000     0.000000     0.000000
    5     1.000000   120.000000     0.577350     0.577350     0.577350     0.000000     0.000000     0.000000
    6    -1.000000   120.000000     0.577350     0.577350     0.577350     0.000000     0.000000     0.000000
    7     1.000000    90.000000     0.000000     0.000000    -1.000000     0.000000     0.000000     0.000000
    8    -1.000000    90.000000     0.000000     0.000000    -1.000000     0.000000     0.000000     0.000000
    9     1.000000   180.000000     0.000000     0.707107     0.707107     0.000000     0.000000     0.000000
   10    -1.000000   180.000000     0.000000     0.707107     0.707107     0.000000     0.000000     0.000000
   11     1.000000    90.000000     0.000000     1.000000     0.000000     0.000000     0.000000     0.000000
   12    -1.000000    90.000000     0.000000     1.000000     0.000000     0.000000     0.000000     0.000000
   13     1.000000   180.000000     0.000000     0.000000     1.000000     0.000000     0.000000     0.000000
   14    -1.000000   180.000000     0.000000     0.000000     1.000000     0.000000     0.000000     0.000000
   15     1.000000   120.000000    -0.577350     0.577350     0.577350     0.000000     0.000000     0.000000
   16    -1.000000   120.000000    -0.577350     0.577350     0.577350     0.000000     0.000000     0.000000
   17     1.000000   120.000000    -0.577350     0.577350    -0.577350     0.000000     0.000000     0.000000
   18    -1.000000   120.000000    -0.577350     0.577350    -0.577350     0.000000     0.000000     0.000000
   19     1.000000    90.000000     0.000000     0.000000     1.000000     0.000000     0.000000     0.000000
   20    -1.000000    90.000000     0.000000     0.000000     1.000000     0.000000     0.000000     0.000000
   21     1.000000    90.000000    -1.000000     0.000000     0.000000     0.000000     0.000000     0.000000
   22    -1.000000    90.000000    -1.000000     0.000000     0.000000     0.000000     0.000000     0.000000
   23     1.000000   180.000000     0.707107     0.000000     0.707107     0.000000     0.000000     0.000000
   24    -1.000000   180.000000     0.707107     0.000000     0.707107     0.000000     0.000000     0.000000
   25     1.000000   120.000000     0.577350    -0.577350     0.577350     0.000000     0.000000     0.000000
   26    -1.000000   120.000000     0.577350    -0.577350     0.577350     0.000000     0.000000     0.000000
   27     1.000000   120.000000    -0.577350    -0.577350     0.577350     0.000000     0.000000     0.000000
   28    -1.000000   120.000000    -0.577350    -0.577350     0.577350     0.000000     0.000000     0.000000
   29     1.000000   180.000000     1.000000     0.000000     0.000000     0.000000     0.000000     0.000000
   30    -1.000000   180.000000     1.000000     0.000000     0.000000     0.000000     0.000000     0.000000
   31     1.000000    90.000000     0.000000    -1.000000     0.000000     0.000000     0.000000     0.000000
   32    -1.000000    90.000000     0.000000    -1.000000     0.000000     0.000000     0.000000     0.000000
   33     1.000000   180.000000     0.707107     0.707107     0.000000     0.000000     0.000000     0.000000
   34    -1.000000   180.000000     0.707107     0.707107     0.000000     0.000000     0.000000     0.000000
   35     1.000000    90.000000     1.000000     0.000000     0.000000     0.000000     0.000000     0.000000
   36    -1.000000    90.000000     1.000000     0.000000     0.000000     0.000000     0.000000     0.000000
   37     1.000000   120.000000     0.577350    -0.577350    -0.577350     0.000000     0.000000     0.000000
   38    -1.000000   120.000000     0.577350    -0.577350    -0.577350     0.000000     0.000000     0.000000
   39     1.000000   180.000000     0.000000     1.000000     0.000000     0.000000     0.000000     0.000000
   40    -1.000000   180.000000     0.000000     1.000000     0.000000     0.000000     0.000000     0.000000
   41     1.000000   120.000000     0.577350     0.577350    -0.577350     0.000000     0.000000     0.000000
   42    -1.000000   120.000000     0.577350     0.577350    -0.577350     0.000000     0.000000     0.000000
   43     1.000000   180.000000     0.000000    -0.707107     0.707107     0.000000     0.000000     0.000000
   44    -1.000000   180.000000     0.000000    -0.707107     0.707107     0.000000     0.000000     0.000000
   45     1.000000   180.000000     0.707107    -0.707107     0.000000     0.000000     0.000000     0.000000
   46    -1.000000   180.000000     0.707107    -0.707107     0.000000     0.000000     0.000000     0.000000
   47     1.000000   180.000000     0.707107     0.000000    -0.707107     0.000000     0.000000     0.000000
   48    -1.000000   180.000000     0.707107     0.000000    -0.707107     0.000000     0.000000     0.000000
 
 Subroutine IBZKPT returns following result:
 ===========================================
 
 Found     35 irreducible k-points:
 
 Following reciprocal coordinates:
            Coordinates               Weight
  0.050000  0.050000  0.050000      8.000000
  0.150000  0.050000  0.050000     24.000000
  0.250000  0.050000  0.050000     24.000000
  0.350000  0.050000  0.050000     24.000000
  0.450000  0.050000  0.050000     24.000000
  0.150000  0.150000  0.050000     24.000000
  0.250000  0.150000  0.050000     48.000000
  0.350000  0.150000  0.050000     48.000000
  0.450000  0.150000  0.050000     48.000000
  0.250000  0.250000  0.050000     24.000000
  0.350000  0.250000  0.050000     48.000000
  0.450000  0.250000  0.050000     48.000000
  0.350000  0.350000  0.050000     24.000000
  0.450000  0.350000  0.050000     48.000000
  0.450000  0.450000  0.050000     24.000000
  0.150000  0.150000  0.150000      8.000000
  0.250000  0.150000  0.150000     24.000000
  0.350000  0.150000  0.150000     24.000000
  0.450000  0.150000  0.150000     24.000000
  0.250000  0.250000  0.150000     24.000000
  0.350000  0.250000  0.150000     48.000000
  0.450000  0.250000  0.150000     48.000000
  0.350000  0.350000  0.150000     24.000000
  0.450000  0.350000  0.150000     48.000000
  0.450000  0.450000  0.150000     24.000000
  0.250000  0.250000  0.250000      8.000000
  0.350000  0.250000  0.250000     24.000000
  0.450000  0.250000  0.250000     24.000000
  0.350000  0.350000  0.250000     24.000000
  0.450000  0.350000  0.250000     48.000000
  0.450000  0.450000  0.250000     24.000000
  0.350000  0.350000  0.350000      8.000000
  0.450000  0.350000  0.350000     24.000000
  0.450000  0.450000  0.350000     24.000000
  0.450000  0.450000  0.450000      8.000000
 
 Following cartesian coordinates:
            Coordinates               Weight
  0.017605  0.017605  0.017605      8.000000
  0.052816  0.017605  0.017605     24.000000
  0.088027  0.017605  0.017605     24.000000
  0.123237  0.017605  0.017605     24.000000
  0.158448  0.017605  0.017605     24.000000
  0.052816  0.052816  0.017605     24.000000
  0.088027  0.052816  0.017605     48.000000
  0.123237  0.052816  0.017605     48.000000
  0.158448  0.052816  0.017605     48.000000
  0.088027  0.088027  0.017605     24.000000
  0.123237  0.088027  0.017605     48.000000
  0.158448  0.088027  0.017605     48.000000
  0.123237  0.123237  0.017605     24.000000
  0.158448  0.123237  0.017605     48.000000
  0.158448  0.158448  0.017605     24.000000
  0.052816  0.052816  0.052816      8.000000
  0.088027  0.052816  0.052816     24.000000
  0.123237  0.052816  0.052816     24.000000
  0.158448  0.052816  0.052816     24.000000
  0.088027  0.088027  0.052816     24.000000
  0.123237  0.088027  0.052816     48.000000
  0.158448  0.088027  0.052816     48.000000
  0.123237  0.123237  0.052816     24.000000
  0.158448  0.123237  0.052816     48.000000
  0.158448  0.158448  0.052816     24.000000
  0.088027  0.088027  0.088027      8.000000
  0.123237  0.088027  0.088027     24.000000
  0.158448  0.088027  0.088027     24.000000
  0.123237  0.123237  0.088027     24.000000
  0.158448  0.123237  0.088027     48.000000
  0.158448  0.158448  0.088027     24.000000
  0.123237  0.123237  0.123237      8.000000
  0.158448  0.123237  0.123237     24.000000
  0.158448  0.158448  0.123237     24.000000
  0.158448  0.158448  0.158448      8.000000
 
 TETIRR: Found    466 inequivalent tetrahedra from     6000


--------------------------------------------------------------------------------------------------------




 Dimension of arrays:
   k-points           NKPTS =     35   k-points in BZ     NKDIM =     35   number of bands    NBANDS=     24
   number of dos      NEDOS =    301   number of ions     NIONS =      2
   non local maximal  LDIM  =      6   non local SUM 2l+1 LMDIM =     18
   total plane-waves  NPLWV =   8000
   max r-space proj   IRMAX =   5034   max aug-charges    IRDMAX=  10541
   dimension x,y,z NGX =    20 NGY =   20 NGZ =   20
   dimension x,y,z NGXF=    40 NGYF=   40 NGZF=   40
   support grid    NGXF=    40 NGYF=   40 NGZF=   40
   ions per type =               2
   NGX,Y,Z   is equivalent  to a cutoff of  11.71, 11.71, 11.71 a.u.
   NGXF,Y,Z  is equivalent  to a cutoff of  23.41, 23.41, 23.41 a.u.

 SYSTEM =  unknown system                          
 POSCAR =  Fe2                                     

 Startparameter for this run:
   NWRITE =      2    write-flag & timer
   PREC   = accura    normal or accurate (medium, high low for compatibility)
   ISTART =      0    job   : 0-new  1-cont  2-samecut
   ICHARG =      2    charge: 1-file 2-atom 10-const
   ISPIN  =      2    spin polarized calculation?
   LNONCOLLINEAR =      F non collinear calculations
   LSORBIT =      F    spin-orbit coupling
   INIWAV =      1    electr: 0-lowe 1-rand  2-diag
   LASPH  =      F    aspherical Exc in radial PAW
   METAGGA=      F    non-selfconsistent MetaGGA calc.

 Electronic Relaxation 1
   ENCUT  =  480.0 eV  35.28 Ry    5.94 a.u.   5.07  5.07  5.07*2*pi/ulx,y,z
   ENINI  =  480.0     initial cutoff
   ENAUG  =  578.3 eV  augmentation charge cutoff
   NELM   =    100;   NELMIN=  2; NELMDL= -5     # of ELM steps 
   EDIFF  = 0.1E-06   stopping-criterion for ELM
   LREAL  =      T    real-space projection
   NLSPLINE    = F    spline interpolate recip. space projectors
   LCOMPAT=      F    compatible to vasp.4.4
   GGA_COMPAT  = T    GGA compatible to vasp.4.4-vasp.4.6
   LMAXPAW     = -100 max onsite density
   LMAXMIX     =    2 max onsite mixed and CHGCAR
   VOSKOWN=      0    Vosko Wilk Nusair interpolation
   ROPT   =   -0.00025
 Ionic relaxation
   EDIFFG = 0.1E-05   stopping-criterion for IOM
   NSW    =      0    number of steps for IOM
   NBLOCK =      1;   KBLOCK =      1    inner block; outer block 
   IBRION =     -1    ionic relax: 0-MD 1-quasi-New 2-CG
   NFREE  =      0    steps in history (QN), initial steepest desc. (CG)
   ISIF   =      3    stress and relaxation
   IWAVPR =     10    prediction:  0-non 1-charg 2-wave 3-comb
   ISYM   =      2    0-nonsym 1-usesym 2-fastsym
   LCORR  =      T    Harris-Foulkes like correction to forces

   POTIM  = 0.5000    time-step for ionic-motion
   TEIN   =    0.0    initial temperature
   TEBEG  =    0.0;   TEEND  =   0.0 temperature during run
   SMASS  =  -3.00    Nose mass-parameter (am)
   estimated Nose-frequenzy (Omega)   =  0.10E-29 period in steps =****** mass=  -0.184E-27a.u.
   SCALEE = 1.0000    scale energy and forces
   NPACO  =    256;   APACO  = 16.0  distance and # of slots for P.C.
   PSTRESS=    0.0 pullay stress

  Mass of Ions in am
   POMASS =  55.85
  Ionic Valenz
   ZVAL   =  14.00
  Atomic Wigner-Seitz radii
   RWIGS  =  -1.00
  virtual crystal weights 
   VCA    =   1.00
   NELECT =      28.0000    total number of electrons
   NUPDOWN=      -1.0000    fix difference up-down

 DOS related values:
   EMIN   =  10.00;   EMAX   =-10.00  energy-range for DOS
   EFERMI =   0.00
   ISMEAR =    -5;   SIGMA  =   0.05  broadening in eV -4-tet -1-fermi 0-gaus

 Electronic relaxation 2 (details)
   IALGO  =     38    algorithm
   LDIAG  =      T    sub-space diagonalisation (order eigenvalues)
   LSUBROT=      F    optimize rotation matrix (better conditioning)
   TURBO    =      0    0=normal 1=particle mesh
   IRESTART =      0    0=no restart 2=restart with 2 vectors
   NREBOOT  =      0    no. of reboots
   NMIN     =      0    reboot dimension
   EREF     =   0.00    reference energy to select bands
   IMIX   =      4    mixing-type and parameters
     AMIX     =   0.40;   BMIX     =  1.00
     AMIX_MAG =   1.60;   BMIX_MAG =  1.00
     AMIN     =   0.10
     WC   =   100.;   INIMIX=   1;  MIXPRE=   1;  MAXMIX= -45

 Intra band minimization:
   WEIMIN = 0.0000     energy-eigenvalue tresh-hold
   EBREAK =  0.10E-08  absolut break condition
   DEPER  =   0.30     relativ break condition  

   TIME   =   0.40     timestep for ELM

  volume/ion in A,a.u.               =      11.45        77.29
  Fermi-wavevector in a.u.,A,eV,Ry     =   1.750389  3.307755 41.686364  3.063861
  Thomas-Fermi vector in A             =   2.821117
 
 Write flags
   LWAVE        =      F    write WAVECAR
   LDOWNSAMPLE  =      F    k-point downsampling of WAVECAR
   LCHARG       =      F    write CHGCAR
   LVTOT        =      F    write LOCPOT, total local potential
   LVHAR        =      F    write LOCPOT, Hartree potential only
   LELF         =      F    write electronic localiz. function (ELF)
   LORBIT       =     11    0 simple, 1 ext, 2 COOP (PROOUT), +10 PAW based schemes


 Dipole corrections
   LMONO  =      F    monopole corrections only (constant potential shift)
   LDIPOL =      F    correct potential (dipole corrections)
   IDIPOL =      0    1-x, 2-y, 3-z, 4-all directions 
   EPSILON=  1.0000000 bulk dielectric constant

 Exchange correlation treatment:
   GGA     =    --    GGA type
   LEXCH   =     8    internal setting for exchange type
   VOSKOWN=      0    Vosko Wilk Nusair interpolation
   LHFCALC =     F    Hartree Fock is set to
   LHFONE  =     F    Hartree Fock one center treatment
   AEXX    =    0.0000 exact exchange contribution

 Linear response parameters
   LEPSILON=     F    determine dielectric tensor
   LRPA    =     F    only Hartree local field effects (RPA)
   LNABLA  =     F    use nabla operator in PAW spheres
   LVEL    =     F    velocity operator in full k-point grid
   LINTERFAST=   F  fast interpolation
   KINTER  =     0    interpolate to denser k-point grid
   CSHIFT  =0.1000    complex shift for real part using Kramers Kronig
   OMEGAMAX=  -1.0    maximum frequency
   DEG_THRESHOLD= 0.2000000E-02 threshold for treating states as degnerate
   RTIME   =   -0.100 relaxation time in fs
  (WPLASMAI=    0.000 imaginary part of plasma frequency in eV, 0.658/RTIME)
   DFIELD  = 0.0000000 0.0000000 0.0000000 field for delta impulse in time
 
 Orbital magnetization related:
   ORBITALMAG=     F  switch on orbital magnetization
   LCHIMAG   =     F  perturbation theory with respect to B field
   DQ        =  0.001000  dq finite difference perturbation B field
   LLRAUG    =     F  two centre corrections for induced B field



--------------------------------------------------------------------------------------------------------


 Static calculation
 charge density and potential will be updated during run
 spin polarized calculation
 Variant of blocked Davidson
 Davidson routine will perform the subspace rotation
 perform sub-space diagonalisation
    after iterative eigenvector-optimisation
 modified Broyden-mixing scheme, WC =      100.0
 initial mixing is a Kerker type mixing with AMIX =  0.4000 and BMIX =      1.0000
 Hartree-type preconditioning will be used
 using additional bands           10
 real space projection scheme for non local part
 use partial core corrections
 calculate Harris-corrections to forces 
   (improved forces if not selfconsistent)
 use gradient corrections 
 use of overlap-Matrix (Vanderbilt PP)
 Fermi weights with tetrahedron method with Bloechl corrections


--------------------------------------------------------------------------------------------------------


  energy-cutoff  :      480.00
  volume of cell :       22.91
      direct lattice vectors                 reciprocal lattice vectors
     2.840052000  0.000000000  0.000000000     0.352106229  0.000000000  0.000000000
     0.000000000  2.840052000  0.000000000     0.000000000  0.352106229  0.000000000
     0.000000000  0.000000000  2.840052000     0.000000000  0.000000000  0.352106229

  length of vectors
     2.840052000  2.840052000  2.840052000     0.352106229  0.352106229  0.352106229


 
 k-points in units of 2pi/SCALE and weight: pymatgen with grid density = 2166 / numb
   0.01760531  0.01760531  0.01760531       0.008
   0.05281593  0.01760531  0.01760531       0.024
   0.08802656  0.01760531  0.01760531       0.024
   0.12323718  0.01760531  0.01760531       0.024
   0.15844780  0.01760531  0.01760531       0.024
   0.05281593  0.05281593  0.01760531       0.024
   0.08802656  0.05281593  0.01760531       0.048
   0.12323718  0.05281593  0.01760531       0.048
   0.15844780  0.05281593  0.01760531       0.048
   0.08802656  0.08802656  0.01760531       0.024
   0.12323718  0.08802656  0.01760531       0.048
   0.15844780  0.08802656  0.01760531       0.048
   0.12323718  0.12323718  0.01760531       0.024
   0.15844780  0.12323718  0.01760531       0.048
   0.15844780  0.15844780  0.01760531       0.024
   0.05281593  0.05281593  0.05281593       0.008
   0.08802656  0.05281593  0.05281593       0.024
   0.12323718  0.05281593  0.05281593       0.024
   0.15844780  0.05281593  0.05281593       0.024
   0.08802656  0.08802656  0.05281593       0.024
   0.12323718  0.08802656  0.05281593       0.048
   0.15844780  0.08802656  0.05281593       0.048
   0.12323718  0.12323718  0.05281593       0.024
   0.15844780  0.12323718  0.05281593       0.048
   0.15844780  0.15844780  0.05281593       0.024
   0.08802656  0.08802656  0.08802656       0.008
   0.12323718  0.08802656  0.08802656       0.024
   0.15844780  0.08802656  0.08802656       0.024
   0.12323718  0.12323718  0.08802656       0.024
   0.15844780  0.12323718  0.08802656       0.048
   0.15844780  0.15844780  0.08802656       0.024
   0.12323718  0.12323718  0.12323718       0.008
   0.15844780  0.12323718  0.12323718       0.024
   0.15844780  0.15844780  0.12323718       0.024
   0.15844780  0.15844780  0.15844780       0.008
 
 k-points in reciprocal lattice and weights: pymatgen with grid density = 2166 / numb
   0.05000000  0.05000000  0.05000000       0.008
   0.15000000  0.05000000  0.05000000       0.024
   0.25000000  0.05000000  0.05000000       0.024
   0.35000000  0.05000000  0.05000000       0.024
   0.45000000  0.05000000  0.05000000       0.024
   0.15000000  0.15000000  0.05000000       0.024
   0.25000000  0.15000000  0.05000000       0.048
   0.35000000  0.15000000  0.05000000       0.048
   0.45000000  0.15000000  0.05000000       0.048
   0.25000000  0.25000000  0.05000000       0.024
   0.35000000  0.25000000  0.05000000       0.048
   0.45000000  0.25000000  0.05000000       0.048
   0.35000000  0.35000000  0.05000000       0.024
   0.45000000  0.35000000  0.05000000       0.048
   0.45000000  0.45000000  0.05000000       0.024
   0.15000000  0.15000000  0.15000000       0.008
   0.25000000  0.15000000  0.15000000       0.024
   0.35000000  0.15000000  0.15000000       0.024
   0.45000000  0.15000000  0.15000000       0.024
   0.25000000  0.25000000  0.15000000       0.024
   0.35000000  0.25000000  0.15000000       0.048
   0.45000000  0.25000000  0.15000000       0.048
   0.35000000  0.35000000  0.15000000       0.024
   0.45000000  0.35000000  0.15000000       0.048
   0.45000000  0.45000000  0.15000000       0.024
   0.25000000  0.25000000  0.25000000       0.008
   0.35000000  0.25000000  0.25000000       0.024
   0.45000000  0.25000000  0.25000000       0.024
   0.35000000  0.35000000  0.25000000       0.024
   0.45000000  0.35000000  0.25000000       0.048
   0.45000000  0.45000000  0.25000000       0.024
   0.35000000  0.35000000  0.35000000       0.008
   0.45000000  0.35000000  0.35000000       0.024
   0.45000000  0.45000000  0.35000000       0.024
   0.45000000  0.45000000  0.45000000       0.008
 
 position of ions in fractional coordinates (direct lattice) 
   0.00000000  0.00000000  0.00000000
   0.50000000  0.50000000  0.50000000
 
 position of ions in cartesian coordinates  (Angst):
   0.00000000  0.00000000  0.00000000
   1.42002600  1.42002600  1.42002600
 


--------------------------------------------------------------------------------------------------------


 k-point  1 :   0.0500 0.0500 0.0500  plane waves:     539
 k-point  2 :   0.1500 0.0500 0.0500  plane waves:     545
 k-point  3 :   0.2500 0.0500 0.0500  plane waves:     540
 k-point  4 :   0.3500 0.0500 0.0500  plane waves:     540
 k-point  5 :   0.4500 0.0500 0.0500  plane waves:     548
 k-point  6 :   0.1500 0.1500 0.0500  plane waves:     539
 k-point  7 :   0.2500 0.1500 0.0500  plane waves:     538
 k-point  8 :   0.3500 0.1500 0.0500  plane waves:     542
 k-point  9 :   0.4500 0.1500 0.0500  plane waves:     548
 k-point 10 :   0.2500 0.2500 0.0500  plane waves:     547
 k-point 11 :   0.3500 0.2500 0.0500  plane waves:     547
 k-point 12 :   0.4500 0.2500 0.0500  plane waves:     546
 k-point 13 :   0.3500 0.3500 0.0500  plane waves:     551
 k-point 14 :   0.4500 0.3500 0.0500  plane waves:     548
 k-point 15 :   0.4500 0.4500 0.0500  plane waves:     548
 k-point 16 :   0.1500 0.1500 0.1500  plane waves:     543
 k-point 17 :   0.2500 0.1500 0.1500  plane waves:     544
 k-point 18 :   0.3500 0.1500 0.1500  plane waves:     545
 k-point 19 :   0.4500 0.1500 0.1500  plane waves:     552
 k-point 20 :   0.2500 0.2500 0.1500  plane waves:     549
 k-point 21 :   0.3500 0.2500 0.1500  plane waves:     549
 k-point 22 :   0.4500 0.2500 0.1500  plane waves:     550
 k-point 23 :   0.3500 0.3500 0.1500  plane waves:     547
 k-point 24 :   0.4500 0.3500 0.1500  plane waves:     548
 k-point 25 :   0.4500 0.4500 0.1500  plane waves:     544
 k-point 26 :   0.2500 0.2500 0.2500  plane waves:     552
 k-point 27 :   0.3500 0.2500 0.2500  plane waves:     547
 k-point 28 :   0.4500 0.2500 0.2500  plane waves:     552
 k-point 29 :   0.3500 0.3500 0.2500  plane waves:     553
 k-point 30 :   0.4500 0.3500 0.2500  plane waves:     553
 k-point 31 :   0.4500 0.4500 0.2500  plane waves:     546
 k-point 32 :   0.3500 0.3500 0.3500  plane waves:     546
 k-point 33 :   0.4500 0.3500 0.3500  plane waves:     551
 k-point 34 :   0.4500 0.4500 0.3500  plane waves:     554
 k-point 35 :   0.4500 0.4500 0.4500  plane waves:     552

 maximum and minimum number of plane-waves per node :       143      127

 maximum number of plane-waves:       554
 maximum index in each direction: 
   IXMAX=    5   IYMAX=    5   IZMAX=    5
   IXMIN=   -5   IYMIN=   -5   IZMIN=   -5


 real space projection operators:
  total allocation   :       1390.78 KBytes
  max/ min on nodes  :        349.03        346.36


 parallel 3D FFT for wavefunctions:
    minimum data exchange during FFTs selected (reduces bandwidth)
 parallel 3D FFT for charge:
    minimum data exchange during FFTs selected (reduces bandwidth)


 total amount of memory used by VASP MPI-rank0    31902. kBytes
=======================================================================

   base      :      30000. kBytes
   nonlr-proj:        599. kBytes
   fftplans  :        172. kBytes
   grid      :        402. kBytes
   one-center:         31. kBytes
   wavefun   :        698. kBytes
 
     INWAV:  cpu time    0.0000: real time    0.0001
 Broyden mixing: mesh for mixing (old mesh)
   NGX = 11   NGY = 11   NGZ = 11
  (NGX  = 40   NGY  = 40   NGZ  = 40)
  gives a total of   1331 points

 initial charge density was supplied:
 charge density of overlapping atoms calculated
 number of electron      28.0000000 magnetization      10.0000000
 keeping initial charge density in first step


--------------------------------------------------------------------------------------------------------


 Maximum index for non-local projection operator         1238
 Maximum index for augmentation-charges          561 (set IRDMAX)


--------------------------------------------------------------------------------------------------------


 First call to EWALD:  gamma=   0.624
 Maximum number of real-space cells 3x 3x 3
 Maximum number of reciprocal cells 3x 3x 3

    FEWALD:  cpu time    0.0013: real time    0.0013


--------------------------------------- Iteration      1(   1)  ---------------------------------------


    POTLOK:  cpu time    0.0062: real time    0.0064
    SETDIJ:  cpu time    0.0053: real time    0.0053
     EDDAV:  cpu time    0.4108: real time    0.4229
 BZINTS: Fermi energy: 19.666664; 28.000000 electrons
         Band energy:-126.259537;  BLOECHL correction: -0.161057
       DOS:  cpu time    0.0340: real time    0.0341
    --------------------------------------------
      LOOP:  cpu time    0.4563: real time    0.4687

 eigenvalue-minimisations  :  3528
 total energy-change (2. order) : 0.1961535E+03  (-0.1704385E+04)
 number of electron      28.0000000 magnetization      10.0000000
 augmentation part       28.0000000 magnetization      10.0000000

 Free energy of the ion-electron system (eV)
  ---------------------------------------------------
  alpha Z        PSCENC =       218.87048721
  Ewald energy   TEWEN  =     -3616.56080017
  -Hartree energ DENC   =     -1162.86386254
  -exchange      EXHF   =         0.00000000
  -V(xc)+E(xc)   XCENC  =       147.54620390
  PAW double counting   =      3997.93860218    -4177.34792201
  entropy T*S    EENTRO =         0.00000000
  eigenvalues    EBANDS =      -126.25953665
  atomic energy  EATOM  =      4914.83029284
  Solvation  Ediel_sol  =         0.00000000
  ---------------------------------------------------
  free energy    TOTEN  =       196.15346476 eV

  energy without entropy =      196.15346476  energy(sigma->0) =      196.15346476


--------------------------------------------------------------------------------------------------------




--------------------------------------- Iteration      1(   2)  ---------------------------------------


     EDDAV:  cpu time    0.3920: real time    0.3929
 BZINTS: Fermi energy: 12.175518; 28.000000 electrons
         Band energy:-332.978858;  BLOECHL correction: -0.069241
       DOS:  cpu time    0.0345: real time    0.0345
    --------------------------------------------
      LOOP:  cpu time    0.4264: real time    0.4274

 eigenvalue-minimisations  :  3396
 total energy-change (2. order) :-0.2067193E+03  (-0.1985001E+03)
 number of electron      28.0000000 magnetization      10.0000000
 augmentation part       28.0000000 magnetization      10.0000000

 Free energy of the ion-electron system (eV)
  ---------------------------------------------------
  alpha Z        PSCENC =       218.87048721
  Ewald energy   TEWEN  =     -3616.56080017
  -Hartree energ DENC   =     -1162.86386254
  -exchange      EXHF   =         0.00000000
  -V(xc)+E(xc)   XCENC  =       147.54620390
  PAW double counting   =      3997.93860218    -4177.34792201
  entropy T*S    EENTRO =         0.00000000
  eigenvalues    EBANDS =      -332.97885766
  atomic energy  EATOM  =      4914.83029284
  Solvation  Ediel_sol  =         0.00000000
  ---------------------------------------------------
  free energy    TOTEN  =       -10.56585625 eV

  energy without entropy =      -10.56585625  energy(sigma->0) =      -10.56585625


--------------------------------------------------------------------------------------------------------




--------------------------------------- Iteration      1(   3)  ---------------------------------------


     EDDAV:  cpu time    0.4257: real time    0.4269
 BZINTS: Fermi energy: 12.037520; 28.000000 electrons
         Band energy:-338.639529;  BLOECHL correction: -0.071292
       DOS:  cpu time    0.0344: real time    0.0344
    --------------------------------------------
      LOOP:  cpu time    0.4601: real time    0.4613

 eigenvalue-minimisations  :  3780
 total energy-change (2. order) :-0.5660672E+01  (-0.5649166E+01)
 number of electron      28.0000000 magnetization      10.0000000
 augmentation part       28.0000000 magnetization      10.0000000

 Free energy of the ion-electron system (eV)
  ---------------------------------------------------
  alpha Z        PSCENC =       218.87048721
  Ewald energy   TEWEN  =     -3616.56080017
  -Hartree energ DENC   =     -1162.86386254
  -exchange      EXHF   =         0.00000000
  -V(xc)+E(xc)   XCENC  =       147.54620390
  PAW double counting   =      3997.93860218    -4177.34792201
  entropy T*S    EENTRO =         0.00000000
  eigenvalues    EBANDS =      -338.63952946
  atomic energy  EATOM  =      4914.83029284
  Solvation  Ediel_sol  =         0.00000000
  ---------------------------------------------------
  free energy    TOTEN  =       -16.22652804 eV

  energy without entropy =      -16.22652804  energy(sigma->0) =      -16.22652804


--------------------------------------------------------------------------------------------------------




--------------------------------------- Iteration      1(   4)  ---------------------------------------


     EDDAV:  cpu time    0.4327: real time    0.4338
 BZINTS: Fermi energy: 12.037196; 28.000000 electrons
         Band energy:-338.684356;  BLOECHL correction: -0.071284
       DOS:  cpu time    0.0343: real time    0.0344
    --------------------------------------------
      LOOP:  cpu time    0.4670: real time    0.4682

 eigenvalue-minimisations  :  3792
 total energy-change (2. order) :-0.4482685E-01  (-0.4483221E-01)
 number of electron      28.0000000 magnetization      10.0000000
 augmentation part       28.0000000 magnetization      10.0000000

 Free energy of the ion-electron system (eV)
  ---------------------------------------------------
  alpha Z        PSCENC =       218.87048721
  Ewald energy   TEWEN  =     -3616.56080017
  -Hartree energ DENC   =     -1162.86386254
  -exchange      EXHF   =         0.00000000
  -V(xc)+E(xc)   XCENC  =       147.54620390
  PAW double counting   =      3997.93860218    -4177.34792201
  entropy T*S    EENTRO =         0.00000000
  eigenvalues    EBANDS =      -338.68435631
  atomic energy  EATOM  =      4914.83029284
  Solvation  Ediel_sol  =         0.00000000
  ---------------------------------------------------
  free energy    TOTEN  =       -16.27135489 eV

  energy without entropy =      -16.27135489  energy(sigma->0) =      -16.27135489


--------------------------------------------------------------------------------------------------------




--------------------------------------- Iteration      1(   5)  ---------------------------------------


     EDDAV:  cpu time    0.4294: real time    0.4313
 BZINTS: Fermi energy: 12.037195; 28.000000 electrons
         Band energy:-338.685175;  BLOECHL correction: -0.071284
       DOS:  cpu time    0.0334: real time    0.0335
    CHARGE:  cpu time    0.0111: real time    0.0112
    MIXING:  cpu time    0.0005: real time    0.0006
    --------------------------------------------
      LOOP:  cpu time    0.4744: real time    0.4765

 eigenvalue-minimisations  :  3792
 total energy-change (2. order) :-0.8182650E-03  (-0.8182771E-03)
 number of electron      28.0000047 magnetization       4.3577258
 augmentation part       15.9038030 magnetization       2.8336139

 Broyden mixing:
  rms(total) = 0.24980E+01    rms(broyden)= 0.24979E+01
  rms(prec ) = 0.39504E+01
  weight for this iteration     100.00

 Free energy of the ion-electron system (eV)
  ---------------------------------------------------
  alpha Z        PSCENC =       218.87048721
  Ewald energy   TEWEN  =     -3616.56080017
  -Hartree energ DENC   =     -1162.86386254
  -exchange      EXHF   =         0.00000000
  -V(xc)+E(xc)   XCENC  =       147.54620390
  PAW double counting   =      3997.93860218    -4177.34792201
  entropy T*S    EENTRO =         0.00000000
  eigenvalues    EBANDS =      -338.68517457
  atomic energy  EATOM  =      4914.83029284
  Solvation  Ediel_sol  =         0.00000000
  ---------------------------------------------------
  free energy    TOTEN  =       -16.27217316 eV

  energy without entropy =      -16.27217316  energy(sigma->0) =      -16.27217316


--------------------------------------------------------------------------------------------------------




--------------------------------------- Iteration      1(   6)  ---------------------------------------


    POTLOK:  cpu time    0.0045: real time    0.0046
    SETDIJ:  cpu time    0.0050: real time    0.0050
     EDDAV:  cpu time    0.3841: real time    0.3852
 BZINTS: Fermi energy:  9.266393; 28.000000 electrons
         Band energy:-409.568467;  BLOECHL correction: -0.036186
       DOS:  cpu time    0.0349: real time    0.0350
    CHARGE:  cpu time    0.0109: real time    0.0109
    MIXING:  cpu time    0.0004: real time    0.0004
    --------------------------------------------
      LOOP:  cpu time    0.4397: real time    0.4411

 eigenvalue-minimisations  :  3420
 total energy-change (2. order) :-0.1817478E+00  (-0.7496782E+00)
 number of electron      28.0000049 magnetization       4.5319719
 augmentation part       17.0670609 magnetization       3.5499069

 Broyden mixing:
  rms(total) = 0.69051E+00    rms(broyden)= 0.69039E+00
  rms(prec ) = 0.86646E+00
  weight for this iteration     100.00

 eigenvalues of (default mixing * dielectric matrix)
  average eigenvalue GAMMA=   0.8371
  0.8371

 Free energy of the ion-electron system (eV)
  ---------------------------------------------------
  alpha Z        PSCENC =       218.87048721
  Ewald energy   TEWEN  =     -3616.56080017
  -Hartree energ DENC   =     -1089.09589056
  -exchange      EXHF   =         0.00000000
  -V(xc)+E(xc)   XCENC  =       140.63925146
  PAW double counting   =      4113.66114391    -4289.22993838
  entropy T*S    EENTRO =         0.00000000
  eigenvalues    EBANDS =      -409.56846725
  atomic energy  EATOM  =      4914.83029284
  Solvation  Ediel_sol  =         0.00000000
  ---------------------------------------------------
  free energy    TOTEN  =       -16.45392093 eV

  energy without entropy =      -16.45392093  energy(sigma->0) =      -16.45392093


--------------------------------------------------------------------------------------------------------




--------------------------------------- Iteration      1(   7)  ---------------------------------------


    POTLOK:  cpu time    0.0045: real time    0.0046
    SETDIJ:  cpu time    0.0047: real time    0.0047
     EDDAV:  cpu time    0.3831: real time    0.3840
 BZINTS: Fermi energy:  9.763377; 28.000000 electrons
         Band energy:-395.170838;  BLOECHL correction: -0.033717
       DOS:  cpu time    0.0322: real time    0.0322
    CHARGE:  cpu time    0.0109: real time    0.0111
    MIXING:  cpu time    0.0003: real time    0.0003
    --------------------------------------------
      LOOP:  cpu time    0.4357: real time    0.4369

 eigenvalue-minimisations  :  3408
 total energy-change (2. order) :-0.5600324E-01  (-0.6119211E-01)
 number of electron      28.0000048 magnetization       4.4437327
 augmentation part       16.7732502 magnetization       3.5265626

 Broyden mixing:
  rms(total) = 0.43030E+00    rms(broyden)= 0.43028E+00
  rms(prec ) = 0.52586E+00
  weight for this iteration     100.00

 eigenvalues of (default mixing * dielectric matrix)
  average eigenvalue GAMMA=   0.7672
  0.9880  0.5464

 Free energy of the ion-electron system (eV)
  ---------------------------------------------------
  alpha Z        PSCENC =       218.87048721
  Ewald energy   TEWEN  =     -3616.56080017
  -Hartree energ DENC   =     -1099.10707171
  -exchange      EXHF   =         0.00000000
  -V(xc)+E(xc)   XCENC  =       141.33132464
  PAW double counting   =      4219.42890856    -4400.13222743
  entropy T*S    EENTRO =         0.00000000
  eigenvalues    EBANDS =      -395.17083812
  atomic energy  EATOM  =      4914.83029284
  Solvation  Ediel_sol  =         0.00000000
  ---------------------------------------------------
  free energy    TOTEN  =       -16.50992417 eV

  energy without entropy =      -16.50992417  energy(sigma->0) =      -16.50992417


--------------------------------------------------------------------------------------------------------




--------------------------------------- Iteration      1(   8)  ---------------------------------------


    POTLOK:  cpu time    0.0049: real time    0.0050
    SETDIJ:  cpu time    0.0045: real time    0.0047
     EDDAV:  cpu time    0.4213: real time    0.4224
 BZINTS: Fermi energy:  9.689331; 28.000000 electrons
         Band energy:-397.449384;  BLOECHL correction: -0.033978
       DOS:  cpu time    0.0339: real time    0.0340
    CHARGE:  cpu time    0.0148: real time    0.0148
    MIXING:  cpu time    0.0003: real time    0.0003
    --------------------------------------------
      LOOP:  cpu time    0.4797: real time    0.4811

 eigenvalue-minimisations  :  3708
 total energy-change (2. order) :-0.9925915E-02  (-0.1476133E-02)
 number of electron      28.0000048 magnetization       4.3701988
 augmentation part       16.8095213 magnetization       3.4532011

 Broyden mixing:
  rms(total) = 0.13683E+00    rms(broyden)= 0.13682E+00
  rms(prec ) = 0.21420E+00
  weight for this iteration     100.00

 eigenvalues of (default mixing * dielectric matrix)
  average eigenvalue GAMMA=   1.0470
  1.6977  0.8569  0.5865

 Free energy of the ion-electron system (eV)
  ---------------------------------------------------
  alpha Z        PSCENC =       218.87048721
  Ewald energy   TEWEN  =     -3616.56080017
  -Hartree energ DENC   =     -1095.18027034
  -exchange      EXHF   =         0.00000000
  -V(xc)+E(xc)   XCENC  =       141.10682144
  PAW double counting   =      4267.46631484    -4449.60331232
  entropy T*S    EENTRO =         0.00000000
  eigenvalues    EBANDS =      -397.44938359
  atomic energy  EATOM  =      4914.83029284
  Solvation  Ediel_sol  =         0.00000000
  ---------------------------------------------------
  free energy    TOTEN  =       -16.51985009 eV

  energy without entropy =      -16.51985009  energy(sigma->0) =      -16.51985009


--------------------------------------------------------------------------------------------------------




--------------------------------------- Iteration      1(   9)  ---------------------------------------


    POTLOK:  cpu time    0.0050: real time    0.0053
    SETDIJ:  cpu time    0.0049: real time    0.0049
     EDDAV:  cpu time    0.4056: real time    0.4067
 BZINTS: Fermi energy:  9.610865; 28.000000 electrons
         Band energy:-399.747965;  BLOECHL correction: -0.034536
       DOS:  cpu time    0.0340: real time    0.0341
    CHARGE:  cpu time    0.0106: real time    0.0106
    MIXING:  cpu time    0.0003: real time    0.0003
    --------------------------------------------
      LOOP:  cpu time    0.4603: real time    0.4619

 eigenvalue-minimisations  :  3624
 total energy-change (2. order) : 0.8210989E-02  (-0.5104940E-03)
 number of electron      28.0000048 magnetization       4.4019337
 augmentation part       16.8457559 magnetization       3.4829151

 Broyden mixing:
  rms(total) = 0.33704E-01    rms(broyden)= 0.33699E-01
  rms(prec ) = 0.45959E-01
  weight for this iteration     100.00

 eigenvalues of (default mixing * dielectric matrix)
  average eigenvalue GAMMA=   1.1855
  2.3404  1.0617  0.6988  0.6413

 Free energy of the ion-electron system (eV)
  ---------------------------------------------------
  alpha Z        PSCENC =       218.87048721
  Ewald energy   TEWEN  =     -3616.56080017
  -Hartree energ DENC   =     -1090.27129554
  -exchange      EXHF   =         0.00000000
  -V(xc)+E(xc)   XCENC  =       140.86404872
  PAW double counting   =      4343.88708289    -4528.38349036
  entropy T*S    EENTRO =         0.00000000
  eigenvalues    EBANDS =      -399.74796469
  atomic energy  EATOM  =      4914.83029284
  Solvation  Ediel_sol  =         0.00000000
  ---------------------------------------------------
  free energy    TOTEN  =       -16.51163910 eV

  energy without entropy =      -16.51163910  energy(sigma->0) =      -16.51163910


--------------------------------------------------------------------------------------------------------




--------------------------------------- Iteration      1(  10)  ---------------------------------------


    POTLOK:  cpu time    0.0045: real time    0.0046
    SETDIJ:  cpu time    0.0046: real time    0.0047
     EDDAV:  cpu time    0.3856: real time    0.3868
 BZINTS: Fermi energy:  9.625243; 28.000000 electrons
         Band energy:-399.208260;  BLOECHL correction: -0.034692
       DOS:  cpu time    0.0348: real time    0.0349
    CHARGE:  cpu time    0.0151: real time    0.0151
    MIXING:  cpu time    0.0003: real time    0.0003
    --------------------------------------------
      LOOP:  cpu time    0.4450: real time    0.4465

 eigenvalue-minimisations  :  3432
 total energy-change (2. order) : 0.1753136E-03  (-0.2252036E-03)
 number of electron      28.0000048 magnetization       4.4067071
 augmentation part       16.8337410 magnetization       3.4849490

 Broyden mixing:
  rms(total) = 0.43903E-02    rms(broyden)= 0.43901E-02
  rms(prec ) = 0.54536E-02
  weight for this iteration     100.00

 eigenvalues of (default mixing * dielectric matrix)
  average eigenvalue GAMMA=   1.1289
  2.4316  1.0994  0.7827  0.6970  0.6338

 Free energy of the ion-electron system (eV)
  ---------------------------------------------------
  alpha Z        PSCENC =       218.87048721
  Ewald energy   TEWEN  =     -3616.56080017
  -Hartree energ DENC   =     -1089.88529600
  -exchange      EXHF   =         0.00000000
  -V(xc)+E(xc)   XCENC  =       140.87141182
  PAW double counting   =      4372.75237605    -4558.18167579
  entropy T*S    EENTRO =         0.00000000
  eigenvalues    EBANDS =      -399.20825975
  atomic energy  EATOM  =      4914.83029284
  Solvation  Ediel_sol  =         0.00000000
  ---------------------------------------------------
  free energy    TOTEN  =       -16.51146378 eV

  energy without entropy =      -16.51146378  energy(sigma->0) =      -16.51146378


--------------------------------------------------------------------------------------------------------




--------------------------------------- Iteration      1(  11)  ---------------------------------------


    POTLOK:  cpu time    0.0045: real time    0.0046
    SETDIJ:  cpu time    0.0046: real time    0.0047
     EDDAV:  cpu time    0.4105: real time    0.4114
 BZINTS: Fermi energy:  9.623679; 28.000000 electrons
         Band energy:-399.240416;  BLOECHL correction: -0.034710
       DOS:  cpu time    0.0339: real time    0.0340
    CHARGE:  cpu time    0.0107: real time    0.0107
    MIXING:  cpu time    0.0003: real time    0.0003
    --------------------------------------------
      LOOP:  cpu time    0.4645: real time    0.4657

 eigenvalue-minimisations  :  3636
 total energy-change (2. order) :-0.5916332E-04  (-0.4750623E-05)
 number of electron      28.0000048 magnetization       4.4060856
 augmentation part       16.8342947 magnetization       3.4845915

 Broyden mixing:
  rms(total) = 0.24241E-02    rms(broyden)= 0.24239E-02
  rms(prec ) = 0.32869E-02
  weight for this iteration     100.00

 eigenvalues of (default mixing * dielectric matrix)
  average eigenvalue GAMMA=   1.2938
  2.3018  2.3018  1.0744  0.6330  0.7543  0.6977

 Free energy of the ion-electron system (eV)
  ---------------------------------------------------
  alpha Z        PSCENC =       218.87048721
  Ewald energy   TEWEN  =     -3616.56080017
  -Hartree energ DENC   =     -1089.87754157
  -exchange      EXHF   =         0.00000000
  -V(xc)+E(xc)   XCENC  =       140.87379407
  PAW double counting   =      4373.99301488    -4559.40035457
  entropy T*S    EENTRO =         0.00000000
  eigenvalues    EBANDS =      -399.24041565
  atomic energy  EATOM  =      4914.83029284
  Solvation  Ediel_sol  =         0.00000000
  ---------------------------------------------------
  free energy    TOTEN  =       -16.51152295 eV

  energy without entropy =      -16.51152295  energy(sigma->0) =      -16.51152295


--------------------------------------------------------------------------------------------------------




--------------------------------------- Iteration      1(  12)  ---------------------------------------


    POTLOK:  cpu time    0.0045: real time    0.0046
    SETDIJ:  cpu time    0.0047: real time    0.0047
     EDDAV:  cpu time    0.4335: real time    0.4347
 BZINTS: Fermi energy:  9.622186; 28.000000 electrons
         Band energy:-399.273887;  BLOECHL correction: -0.034722
       DOS:  cpu time    0.0348: real time    0.0349
    CHARGE:  cpu time    0.0107: real time    0.0108
    MIXING:  cpu time    0.0004: real time    0.0004
    --------------------------------------------
      LOOP:  cpu time    0.4885: real time    0.4899

 eigenvalue-minimisations  :  3852
 total energy-change (2. order) :-0.7919476E-05  (-0.4641647E-06)
 number of electron      28.0000048 magnetization       4.4058038
 augmentation part       16.8349894 magnetization       3.4845688

 Broyden mixing:
  rms(total) = 0.95318E-03    rms(broyden)= 0.95313E-03
  rms(prec ) = 0.13364E-02
  weight for this iteration     100.00

 eigenvalues of (default mixing * dielectric matrix)
  average eigenvalue GAMMA=   1.2308
  2.3881  2.3881  1.0830  0.7878  0.7180  0.6252  0.6252

 Free energy of the ion-electron system (eV)
  ---------------------------------------------------
  alpha Z        PSCENC =       218.87048721
  Ewald energy   TEWEN  =     -3616.56080017
  -Hartree energ DENC   =     -1089.92908794
  -exchange      EXHF   =         0.00000000
  -V(xc)+E(xc)   XCENC  =       140.87643638
  PAW double counting   =      4375.09870971    -4560.42368154
  entropy T*S    EENTRO =         0.00000000
  eigenvalues    EBANDS =      -399.27388736
  atomic energy  EATOM  =      4914.83029284
  Solvation  Ediel_sol  =         0.00000000
  ---------------------------------------------------
  free energy    TOTEN  =       -16.51153087 eV

  energy without entropy =      -16.51153087  energy(sigma->0) =      -16.51153087


--------------------------------------------------------------------------------------------------------




--------------------------------------- Iteration      1(  13)  ---------------------------------------


    POTLOK:  cpu time    0.0045: real time    0.0046
    SETDIJ:  cpu time    0.0046: real time    0.0046
     EDDAV:  cpu time    0.3937: real time    0.3949
 BZINTS: Fermi energy:  9.622783; 28.000000 electrons
         Band energy:-399.261632;  BLOECHL correction: -0.034714
       DOS:  cpu time    0.0339: real time    0.0340
    CHARGE:  cpu time    0.0107: real time    0.0107
    MIXING:  cpu time    0.0004: real time    0.0004
    --------------------------------------------
      LOOP:  cpu time    0.4478: real time    0.4492

 eigenvalue-minimisations  :  3504
 total energy-change (2. order) : 0.6757325E-05  (-0.1315701E-06)
 number of electron      28.0000048 magnetization       4.4056074
 augmentation part       16.8346911 magnetization       3.4842630

 Broyden mixing:
  rms(total) = 0.23767E-03    rms(broyden)= 0.23763E-03
  rms(prec ) = 0.32233E-03
  weight for this iteration     100.00

 eigenvalues of (default mixing * dielectric matrix)
  average eigenvalue GAMMA=   1.2907
  2.5305  2.4495  1.4748  1.0638  0.8072  0.6260  0.6867  0.6867

 Free energy of the ion-electron system (eV)
  ---------------------------------------------------
  alpha Z        PSCENC =       218.87048721
  Ewald energy   TEWEN  =     -3616.56080017
  -Hartree energ DENC   =     -1089.93600903
  -exchange      EXHF   =         0.00000000
  -V(xc)+E(xc)   XCENC  =       140.87632295
  PAW double counting   =      4375.21920528    -4560.54939074
  entropy T*S    EENTRO =         0.00000000
  eigenvalues    EBANDS =      -399.26163245
  atomic energy  EATOM  =      4914.83029284
  Solvation  Ediel_sol  =         0.00000000
  ---------------------------------------------------
  free energy    TOTEN  =       -16.51152411 eV

  energy without entropy =      -16.51152411  energy(sigma->0) =      -16.51152411


--------------------------------------------------------------------------------------------------------




--------------------------------------- Iteration      1(  14)  ---------------------------------------


    POTLOK:  cpu time    0.0045: real time    0.0046
    SETDIJ:  cpu time    0.0046: real time    0.0046
     EDDAV:  cpu time    0.3305: real time    0.3315
 BZINTS: Fermi energy:  9.623014; 28.000000 electrons
         Band energy:-399.257010;  BLOECHL correction: -0.034713
       DOS:  cpu time    0.0339: real time    0.0340
    CHARGE:  cpu time    0.0105: real time    0.0106
    MIXING:  cpu time    0.0004: real time    0.0004
    --------------------------------------------
      LOOP:  cpu time    0.3845: real time    0.3857

 eigenvalue-minimisations  :  2640
 total energy-change (2. order) : 0.1462749E-05  (-0.1457025E-07)
 number of electron      28.0000048 magnetization       4.4056254
 augmentation part       16.8345821 magnetization       3.4842488

 Broyden mixing:
  rms(total) = 0.59985E-04    rms(broyden)= 0.59769E-04
  rms(prec ) = 0.80357E-04
  weight for this iteration     100.00

 eigenvalues of (default mixing * dielectric matrix)
  average eigenvalue GAMMA=   1.2120
  2.6092  2.4667  1.2813  1.0489  0.8275  0.6314  0.6692  0.6870  0.6870

 Free energy of the ion-electron system (eV)
  ---------------------------------------------------
  alpha Z        PSCENC =       218.87048721
  Ewald energy   TEWEN  =     -3616.56080017
  -Hartree energ DENC   =     -1089.93831259
  -exchange      EXHF   =         0.00000000
  -V(xc)+E(xc)   XCENC  =       140.87615690
  PAW double counting   =      4375.21732230    -4560.54965898
  entropy T*S    EENTRO =         0.00000000
  eigenvalues    EBANDS =      -399.25701016
  atomic energy  EATOM  =      4914.83029284
  Solvation  Ediel_sol  =         0.00000000
  ---------------------------------------------------
  free energy    TOTEN  =       -16.51152265 eV

  energy without entropy =      -16.51152265  energy(sigma->0) =      -16.51152265


--------------------------------------------------------------------------------------------------------




--------------------------------------- Iteration      1(  15)  ---------------------------------------


    POTLOK:  cpu time    0.0046: real time    0.0047
    SETDIJ:  cpu time    0.0046: real time    0.0046
     EDDAV:  cpu time    0.2540: real time    0.2547
 BZINTS: Fermi energy:  9.622979; 28.000000 electrons
         Band energy:-399.257934;  BLOECHL correction: -0.034713
       DOS:  cpu time    0.0322: real time    0.0322
    --------------------------------------------
      LOOP:  cpu time    0.2953: real time    0.2962

 eigenvalue-minimisations  :  1740
 total energy-change (2. order) :-0.2459728E-07  (-0.1156113E-08)
 number of electron      28.0000048 magnetization       4.4056254
 augmentation part       16.8345821 magnetization       3.4842488

 Free energy of the ion-electron system (eV)
  ---------------------------------------------------
  alpha Z        PSCENC =       218.87048721
  Ewald energy   TEWEN  =     -3616.56080017
  -Hartree energ DENC   =     -1089.93790756
  -exchange      EXHF   =         0.00000000
  -V(xc)+E(xc)   XCENC  =       140.87618860
  PAW double counting   =      4375.21322419    -4560.54507360
  entropy T*S    EENTRO =         0.00000000
  eigenvalues    EBANDS =      -399.25793418
  atomic energy  EATOM  =      4914.83029284
  Solvation  Ediel_sol  =         0.00000000
  ---------------------------------------------------
  free energy    TOTEN  =       -16.51152267 eV

  energy without entropy =      -16.51152267  energy(sigma->0) =      -16.51152267


--------------------------------------------------------------------------------------------------------




 average (electrostatic) potential at core
  the test charge radii are     0.9500
  (the norm of the test charge is              1.0000)
       1 -73.6645       2 -73.6645
 
 
 
 E-fermi :   9.6230     XC(G=0): -13.6244     alpha+bet :-17.4163


 spin component 1

 k-point     1 :       0.0500    0.0500    0.0500
  band No.  band energies     occupation 
      1     -44.5599      1.00000
      2     -44.5599      1.00000
      3     -44.5456      1.00000
      4     -44.2888      1.00000
      5     -44.2738      1.00000
      6     -44.2738      1.00000
      7       1.3975      1.00000
      8       4.9390      1.00000
      9       4.9390      1.00000
     10       7.3054      1.00000
     11       7.3054      1.00000
     12       7.4314      1.00000
     13       8.5811      1.00000
     14       8.5811      1.00000
     15       9.4950      1.00000
     16       9.6873      0.60118
     17       9.6873      0.00982
     18      19.1991      0.00000
     19      19.1991      0.00000
     20      19.4410      0.00000
     21      25.8109      0.00000
     22      25.8109      0.00000
     23      30.6959      0.00000
     24      33.3492      0.00000

 k-point     2 :       0.1500    0.0500    0.0500
  band No.  band energies     occupation 
      1     -44.5659      1.00000
      2     -44.5451      1.00000
      3     -44.5235      1.00000
      4     -44.3206      1.00000
      5     -44.2872      1.00000
      6     -44.2795      1.00000
      7       1.8011      1.00000
      8       5.1069      1.00000
      9       5.1090      1.00000
     10       7.2467      1.00000
     11       7.2949      1.00000
     12       7.5995      1.00000
     13       8.4149      1.00000
     14       8.6559      1.00000
     15       9.1043      1.00000
     16       9.3728      1.02105
     17       9.6659      0.13632
     18      17.0984      0.00000
     19      19.9181      0.00000
     20      20.0951      0.00000
     21      25.9625      0.00000
     22      27.1443      0.00000
     23      31.5531      0.00000
     24      32.1487      0.00000

 k-point     3 :       0.2500    0.0500    0.0500
  band No.  band energies     occupation 
      1     -44.5631      1.00000
      2     -44.5173      1.00000
      3     -44.4927      1.00000
      4     -44.3683      1.00000
      5     -44.3126      1.00000
      6     -44.2996      1.00000
      7       2.5667      1.00000
      8       5.3681      1.00000
      9       5.4282      1.00000
     10       7.2428      1.00000
     11       7.2877      1.00000
     12       7.8419      1.00000
     13       8.1084      1.00000
     14       8.6070      1.00000
     15       8.7952      1.00000
     16       8.8893      1.00000
     17       9.4862      1.03924
     18      14.5753      0.00000
     19      21.1873      0.00000
     20      21.3580      0.00000
     21      26.2951      0.00000
     22      27.9718      0.00000
     23      29.6293      0.00000
     24      31.2960      0.00000

 k-point     4 :       0.3500    0.0500    0.0500
  band No.  band energies     occupation 
      1     -44.5486      1.00000
      2     -44.4794      1.00000
      3     -44.4547      1.00000
      4     -44.4236      1.00000
      5     -44.3480      1.00000
      6     -44.3309      1.00000
      7       3.5889      1.00000
      8       5.5406      1.00000
      9       5.8733      1.00000
     10       7.2461      1.00000
     11       7.3216      1.00000
     12       7.7685      1.00000
     13       8.1308      1.00000
     14       8.1506      1.00000
     15       8.3932      1.00000
     16       9.0197      1.00000
     17       9.2007      1.03866
     18      12.2830      0.00000
     19      22.7942      0.00000
     20      23.0068      0.00000
     21      26.8760      0.00000
     22      27.8752      0.00000
     23      28.6102      0.00000
     24      29.1472      0.00000

 k-point     5 :       0.4500    0.0500    0.0500
  band No.  band energies     occupation 
      1     -44.5199      1.00000
      2     -44.4768      1.00000
      3     -44.4356      1.00000
      4     -44.4125      1.00000
      5     -44.3902      1.00000
      6     -44.3698      1.00000
      7       4.6409      1.00000
      8       5.3583      1.00000
      9       6.3953      1.00000
     10       6.9181      1.00000
     11       7.4994      1.00000
     12       7.7315      1.00000
     13       7.7628      1.00000
     14       7.9857      1.00000
     15       8.4994      1.00000
     16       8.8578      1.00000
     17       9.4835      0.98556
     18      10.5195      0.00000
     19      24.5323      0.00000
     20      24.9041      0.00000
     21      26.2269      0.00000
     22      26.9668      0.00000
     23      27.8216      0.00000
     24      29.2510      0.00000

 k-point     6 :       0.1500    0.1500    0.0500
  band No.  band energies     occupation 
      1     -44.5799      1.00000
      2     -44.5363      1.00000
      3     -44.4911      1.00000
      4     -44.3621      1.00000
      5     -44.2974      1.00000
      6     -44.2740      1.00000
      7       2.1890      1.00000
      8       5.2398      1.00000
      9       5.2986      1.00000
     10       7.0941      1.00000
     11       7.2378      1.00000
     12       7.8704      1.00000
     13       8.4393      1.00000
     14       8.6111      1.00000
     15       8.6250      1.00000
     16       9.1499      1.00690
     17       9.7351      0.03141
     18      17.1956      0.00000
     19      18.2805      0.00000
     20      20.6503      0.00000
     21      26.6288      0.00000
     22      28.5397      0.00000
     23      29.9223      0.00000
     24      31.9698      0.00000

 k-point     7 :       0.2500    0.1500    0.0500
  band No.  band energies     occupation 
      1     -44.5892      1.00000
      2     -44.5107      1.00000
      3     -44.4532      1.00000
      4     -44.4168      1.00000
      5     -44.3204      1.00000
      6     -44.2815      1.00000
      7       2.9154      1.00000
      8       5.4561      1.00000
      9       5.6213      1.00000
     10       6.9885      1.00000
     11       7.1828      1.00000
     12       8.1062      1.00000
     13       8.2005      1.00000
     14       8.2831      1.00000
     15       8.7220      1.00000
     16       8.7249      1.00000
     17       9.6889      0.28917
     18      14.9836      0.00000
     19      19.0117      0.00000
     20      21.7952      0.00000
     21      27.0203      0.00000
     22      27.7479      0.00000
     23      29.9241      0.00000
     24      30.6413      0.00000

 k-point     8 :       0.3500    0.1500    0.0500
  band No.  band energies     occupation 
      1     -44.5851      1.00000
      2     -44.4752      1.00000
      3     -44.4745      1.00000
      4     -44.4126      1.00000
      5     -44.3529      1.00000
      6     -44.3025      1.00000
      7       3.8577      1.00000
      8       5.5959      1.00000
      9       6.0123      1.00000
     10       6.9649      1.00000
     11       7.1193      1.00000
     12       7.6674      1.00000
     13       8.0936      1.00000
     14       8.3380      1.00000
     15       8.5646      1.00000
     16       8.9638      1.00000
     17       9.4971      0.92398
     18      12.6530      0.00000
     19      20.3758      0.00000
     20      23.3116      0.00000
     21      25.6604      0.00000
     22      27.5892      0.00000
     23      28.7790      0.00000
     24      30.9263      0.00000

 k-point     9 :       0.4500    0.1500    0.0500
  band No.  band energies     occupation 
      1     -44.5642      1.00000
      2     -44.5261      1.00000
      3     -44.4342      1.00000
      4     -44.3920      1.00000
      5     -44.3717      1.00000
      6     -44.3338      1.00000
      7       4.7816      1.00000
      8       5.4047      1.00000
      9       6.4373      1.00000
     10       6.8155      1.00000
     11       7.1501      1.00000
     12       7.3559      1.00000
     13       8.0553      1.00000
     14       8.1288      1.00000
     15       8.8897      1.00000
     16       9.2085      1.00000
     17       9.5414      0.77888
     18      10.7642      0.00000
     19      21.9646      0.00000
     20      23.7291      0.00000
     21      25.0470      0.00000
     22      26.8829      0.00000
     23      28.4947      0.00000
     24      29.8473      0.00000

 k-point    10 :       0.2500    0.2500    0.0500
  band No.  band energies     occupation 
      1     -44.6124      1.00000
      2     -44.4900      1.00000
      3     -44.4765      1.00000
      4     -44.4104      1.00000
      5     -44.3383      1.00000
      6     -44.2742      1.00000
      7       3.5384      1.00000
      8       5.5110      1.00000
      9       6.0146      1.00000
     10       6.7717      1.00000
     11       7.1540      1.00000
     12       7.5992      1.00000
     13       8.4268      1.00000
     14       8.4291      1.00000
     15       8.6232      1.00000
     16       8.6653      1.00000
     17       9.8082     -0.03389
     18      14.8628      0.00000
     19      17.4654      0.00000
     20      22.7543      0.00000
     21      25.3834      0.00000
     22      27.3664      0.00000
     23      30.0596      0.00000
     24      32.3855      0.00000

 k-point    11 :       0.3500    0.2500    0.0500
  band No.  band energies     occupation 
      1     -44.6216      1.00000
      2     -44.5346      1.00000
      3     -44.4613      1.00000
      4     -44.3690      1.00000
      5     -44.3636      1.00000
      6     -44.2813      1.00000
      7       4.2634      1.00000
      8       5.4682      1.00000
      9       6.4676      1.00000
     10       6.6643      1.00000
     11       7.1896      1.00000
     12       7.2439      1.00000
     13       8.2729      1.00000
     14       8.4052      1.00000
     15       8.8102      1.00000
     16       9.0701      1.02186
     17       9.7583      0.00402
     18      13.0480      0.00000
     19      18.1031      0.00000
     20      23.1677      0.00000
     21      24.0657      0.00000
     22      27.8481      0.00000
     23      28.7851      0.00000
     24      31.4414      0.00000

 k-point    12 :       0.4500    0.2500    0.0500
  band No.  band energies     occupation 
      1     -44.6119      1.00000
      2     -44.5820      1.00000
      3     -44.4281      1.00000
      4     -44.3945      1.00000
      5     -44.3317      1.00000
      6     -44.3015      1.00000
      7       4.8667      1.00000
      8       5.2600      1.00000
      9       6.6826      1.00000
     10       6.7712      1.00000
     11       7.0125      1.00000
     12       7.2246      1.00000
     13       8.3128      1.00000
     14       8.3958      1.00000
     15       9.1814      1.00000
     16       9.5472      0.95180
     17       9.7289      0.02997
     18      11.1093      0.00000
     19      19.4885      0.00000
     20      21.1929      0.00000
     21      25.5955      0.00000
     22      27.2066      0.00000
     23      28.6468      0.00000
     24      29.8688      0.00000

 k-point    13 :       0.3500    0.3500    0.0500
  band No.  band energies     occupation 
      1     -44.6447      1.00000
      2     -44.5891      1.00000
      3     -44.4420      1.00000
      4     -44.3791      1.00000
      5     -44.3307      1.00000
      6     -44.2743      1.00000
      7       4.6033      1.00000
      8       5.2505      1.00000
      9       6.4675      1.00000
     10       6.7903      1.00000
     11       7.0692      1.00000
     12       7.8005      1.00000
     13       8.3291      1.00000
     14       8.5824      1.00000
     15       8.7318      1.00000
     16       9.5049      0.96297
     17       9.8587     -0.00496
     18      12.6724      0.00000
     19      17.0750      0.00000
     20      20.9323      0.00000
     21      25.1098      0.00000
     22      28.2078      0.00000
     23      28.4080      0.00000
     24      30.7481      0.00000

 k-point    14 :       0.4500    0.3500    0.0500
  band No.  band energies     occupation 
      1     -44.6480      1.00000
      2     -44.6289      1.00000
      3     -44.4202      1.00000
      4     -44.3985      1.00000
      5     -44.3006      1.00000
      6     -44.2812      1.00000
      7       4.8279      1.00000
      8       5.0277      1.00000
      9       6.4162      1.00000
     10       6.5256      1.00000
     11       7.6338      1.00000
     12       8.0158      1.00000
     13       8.4776      1.00000
     14       8.6088      1.00000
     15       9.2346      1.00000
     16       9.7477      0.31723
     17      10.0492      0.00000
     18      11.2873      0.00000
     19      17.6519      0.00000
     20      19.0562      0.00000
     21      26.3158      0.00000
     22      27.4990      0.00000
     23      28.8180      0.00000
     24      29.7265      0.00000

 k-point    15 :       0.4500    0.4500    0.0500
  band No.  band energies     occupation 
      1     -44.6647      1.00000
      2     -44.6581      1.00000
      3     -44.4118      1.00000
      4     -44.4043      1.00000
      5     -44.2811      1.00000
      6     -44.2744      1.00000
      7       4.7958      1.00000
      8       4.8573      1.00000
      9       6.2869      1.00000
     10       6.3244      1.00000
     11       8.3608      1.00000
     12       8.5989      1.00000
     13       8.6199      1.00000
     14       8.7806      1.00000
     15       9.2764      1.00000
     16       9.7027      0.28355
     17      10.4352      0.00000
     18      10.9857      0.00000
     19      16.9426      0.00000
     20      17.5287      0.00000
     21      27.0343      0.00000
     22      27.4879      0.00000
     23      29.0842      0.00000
     24      29.4290      0.00000

 k-point    16 :       0.1500    0.1500    0.1500
  band No.  band energies     occupation 
      1     -44.5643      1.00000
      2     -44.5643      1.00000
      3     -44.4553      1.00000
      4     -44.3996      1.00000
      5     -44.2882      1.00000
      6     -44.2882      1.00000
      7       2.5663      1.00000
      8       5.4270      1.00000
      9       5.4270      1.00000
     10       7.0366      1.00000
     11       7.0366      1.00000
     12       8.0864      1.00000
     13       8.1865      1.00000
     14       8.5287      1.00000
     15       8.5287      1.00000
     16       9.4252      0.99979
     17       9.4252      1.11242
     18      17.8410      0.00000
     19      17.8410      0.00000
     20      19.2365      0.00000
     21      28.7878      0.00000
     22      28.7878      0.00000
     23      29.7388      0.00000
     24      29.7388      0.00000

 k-point    17 :       0.2500    0.1500    0.1500
  band No.  band energies     occupation 
      1     -44.5845      1.00000
      2     -44.5345      1.00000
      3     -44.4510      1.00000
      4     -44.4172      1.00000
      5     -44.3155      1.00000
      6     -44.2877      1.00000
      7       3.2651      1.00000
      8       5.6662      1.00000
      9       5.7003      1.00000
     10       6.9040      1.00000
     11       6.9353      1.00000
     12       7.5736      1.00000
     13       8.3829      1.00000
     14       8.5853      1.00000
     15       8.6832      1.00000
     16       8.9723      1.00000
     17       9.5066      0.95275
     18      15.4699      0.00000
     19      18.9549      0.00000
     20      19.8763      0.00000
     21      27.5258      0.00000
     22      28.5415      0.00000
     23      29.3034      0.00000
     24      30.5093      0.00000

 k-point    18 :       0.3500    0.1500    0.1500
  band No.  band energies     occupation 
      1     -44.5906      1.00000
      2     -44.5038      1.00000
      3     -44.4940      1.00000
      4     -44.3805      1.00000
      5     -44.3534      1.00000
      6     -44.2984      1.00000
      7       4.1484      1.00000
      8       5.8196      1.00000
      9       5.9795      1.00000
     10       6.7958      1.00000
     11       6.9298      1.00000
     12       7.2682      1.00000
     13       8.2265      1.00000
     14       8.5463      1.00000
     15       8.8087      1.00000
     16       9.1284      1.00000
     17       9.4070      0.92719
     18      13.1242      0.00000
     19      20.3547      0.00000
     20      21.0646      0.00000
     21      25.4925      0.00000
     22      26.4574      0.00000
     23      30.1157      0.00000
     24      31.4555      0.00000

 k-point    19 :       0.4500    0.1500    0.1500
  band No.  band energies     occupation 
      1     -44.5790      1.00000
      2     -44.5489      1.00000
      3     -44.4472      1.00000
      4     -44.3988      1.00000
      5     -44.3469      1.00000
      6     -44.3189      1.00000
      7       4.9802      1.00000
      8       5.5624      1.00000
[...]
     19      18.3222      0.00000
     20      20.7967      0.00000
     21      22.3838      0.00000
     22      24.8369      0.00000
     23      26.2496      0.00000
     24      30.1358      0.00000

 k-point    30 :       0.4500    0.3500    0.2500
  band No.  band energies     occupation 
      1     -42.0273      1.00000
      2     -42.0271      1.00000
      3     -41.8757      1.00000
      4     -41.8245      1.00000
      5     -41.7182      1.00000
      6     -41.7139      1.00000
      7       6.7332      1.00000
      8       7.0455      1.00000
      9       7.9681      1.00000
     10       7.9790      1.00000
     11       8.3650      1.00000
     12       8.4917      1.00000
     13      11.1843      0.00000
     14      11.2348      0.00000
     15      11.5149      0.00000
     16      11.5333      0.00000
     17      13.8176      0.00000
     18      14.8900      0.00000
     19      19.1261      0.00000
     20      20.5768      0.00000
     21      21.9127      0.00000
     22      23.4382      0.00000
     23      26.7655      0.00000
     24      28.2361      0.00000

 k-point    31 :       0.4500    0.4500    0.2500
  band No.  band energies     occupation 
      1     -42.0351      1.00000
      2     -42.0344      1.00000
      3     -41.8563      1.00000
      4     -41.8356      1.00000
      5     -41.7245      1.00000
      6     -41.7207      1.00000
      7       6.8535      1.00000
      8       6.9341      1.00000
      9       7.8854      1.00000
     10       7.9003      1.00000
     11       8.6617      1.00000
     12       8.7309      1.00000
     13      11.3010      0.00000
     14      11.3257      0.00000
     15      11.5264      0.00000
     16      11.5391      0.00000
     17      14.4944      0.00000
     18      15.0174      0.00000
     19      18.3896      0.00000
     20      19.0493      0.00000
     21      23.0062      0.00000
     22      24.1220      0.00000
     23      25.2320      0.00000
     24      26.3288      0.00000

 k-point    32 :       0.3500    0.3500    0.3500
  band No.  band energies     occupation 
      1     -42.0113      1.00000
      2     -41.9609      1.00000
      3     -41.9609      1.00000
      4     -41.7722      1.00000
      5     -41.7722      1.00000
      6     -41.7221      1.00000
      7       6.9267      1.00000
      8       7.5010      1.00000
      9       7.9283      1.00000
     10       7.9283      1.00000
     11       8.0747      1.00000
     12       8.0747      1.00000
     13      11.3765      0.00000
     14      11.3765      0.00000
     15      11.4153      0.00000
     16      11.4153      0.00000
     17      13.8660      0.00000
     18      17.4977      0.00000
     19      17.4977      0.00000
     20      19.8858      0.00000
     21      22.8242      0.00000
     22      22.8242      0.00000
     23      24.1446      0.00000
     24      28.0395      0.00000

 k-point    33 :       0.4500    0.3500    0.3500
  band No.  band energies     occupation 
      1     -42.0059      1.00000
      2     -41.9900      1.00000
      3     -41.8982      1.00000
      4     -41.8331      1.00000
      5     -41.7559      1.00000
      6     -41.7371      1.00000
      7       7.2803      1.00000
      8       7.3828      1.00000
      9       7.8729      1.00000
     10       7.9211      1.00000
     11       8.0473      1.00000
     12       8.2176      1.00000
     13      11.3597      0.00000
     14      11.3851      0.00000
     15      11.5029      0.00000
     16      11.5140      0.00000
     17      14.8067      0.00000
     18      16.0282      0.00000
     19      19.1312      0.00000
     20      20.4293      0.00000
     21      20.9120      0.00000
     22      21.6691      0.00000
     23      24.5504      0.00000
     24      26.0865      0.00000

 k-point    34 :       0.4500    0.4500    0.3500
  band No.  band energies     occupation 
      1     -41.9887      1.00000
      2     -41.9775      1.00000
      3     -41.8844      1.00000
      4     -41.8482      1.00000
      5     -41.7785      1.00000
      6     -41.7639      1.00000
      7       7.4290      1.00000
      8       7.4426      1.00000
      9       7.8031      1.00000
     10       7.8461      1.00000
     11       8.1735      1.00000
     12       8.2618      1.00000
     13      11.4437      0.00000
     14      11.4544      0.00000
     15      11.5333      0.00000
     16      11.5375      0.00000
     17      15.8065      0.00000
     18      16.5890      0.00000
     19      18.5410      0.00000
     20      19.5008      0.00000
     21      21.0123      0.00000
     22      22.1190      0.00000
     23      22.9683      0.00000
     24      24.1589      0.00000

 k-point    35 :       0.4500    0.4500    0.4500
  band No.  band energies     occupation 
      1     -41.9438      1.00000
      2     -41.9114      1.00000
      3     -41.9114      1.00000
      4     -41.8428      1.00000
      5     -41.8428      1.00000
      6     -41.8102      1.00000
      7       7.6632      1.00000
      8       7.8098      1.00000
      9       7.8098      1.00000
     10       7.9086      1.00000
     11       7.9539      1.00000
     12       7.9539      1.00000
     13      11.5393      0.00000
     14      11.5393      0.00000
     15      11.5423      0.00000
     16      11.5423      0.00000
     17      17.1208      0.00000
     18      18.3151      0.00000
     19      18.3151      0.00000
     20      20.0015      0.00000
     21      20.1681      0.00000
     22      20.1681      0.00000
     23      21.5166      0.00000
     24      22.3091      0.00000


--------------------------------------------------------------------------------------------------------


 soft charge-density along one line, spin component           1
         0         1         2         3         4         5         6         7         8         9
 total charge-density along one line
 
 soft charge-density along one line, spin component           2
         0         1         2         3         4         5         6         7         8         9
 total charge-density along one line
 
 pseudopotential strength for first ion, spin component:           1
-44.858   0.000   0.000   7.570  -0.000  -0.000   0.000  -0.000
  0.000 -44.858   0.000  -0.000   7.570  -0.000   0.000   0.000
  0.000   0.000 -44.858  -0.000  -0.000   7.570   0.000   0.000
  7.570  -0.000  -0.000   5.637  -0.000  -0.000  -0.000   0.000
 -0.000   7.570  -0.000  -0.000   5.637  -0.000  -0.000  -0.000
 -0.000  -0.000   7.570  -0.000  -0.000   5.637  -0.000  -0.000
  0.000   0.000   0.000  -0.000  -0.000  -0.000  -1.981   0.000
 -0.000   0.000   0.000   0.000  -0.000  -0.000   0.000  -1.981
 -0.000  -0.000  -0.000   0.000   0.000   0.000  -0.000   0.000
  0.000  -0.000  -0.000  -0.000  -0.000   0.000  -0.000   0.000
 -0.000   0.000   0.000   0.000  -0.000   0.000   0.000  -0.000
  0.000   0.000   0.000  -0.000  -0.000  -0.000  -2.495   0.000
 -0.000   0.000   0.000   0.000  -0.000  -0.000   0.000  -2.495
 -0.000  -0.000  -0.000   0.000   0.000  -0.000  -0.000   0.000
  0.000  -0.000  -0.000  -0.000  -0.000   0.000  -0.000   0.000
 -0.000   0.000   0.000   0.000  -0.000  -0.000   0.000  -0.000
 -0.000   0.000  -0.000  -0.000   0.000  -0.000  -0.000  -0.000
 -0.000   0.000  -0.000  -0.000   0.000  -0.000  -0.000  -0.000
 pseudopotential strength for first ion, spin component:           2
-42.886   0.000   0.000   6.737  -0.000  -0.000   0.000  -0.000
  0.000 -42.886   0.000  -0.000   6.737  -0.000  -0.000   0.000
  0.000   0.000 -42.886  -0.000  -0.000   6.737   0.000  -0.000
  6.737  -0.000  -0.000   5.866   0.000  -0.000   0.000   0.000
 -0.000   6.737  -0.000   0.000   5.866  -0.000   0.000  -0.000
 -0.000  -0.000   6.737  -0.000  -0.000   5.866  -0.000   0.000
  0.000  -0.000   0.000   0.000   0.000  -0.000  -0.455   0.000
 -0.000   0.000  -0.000   0.000  -0.000   0.000   0.000  -0.455
 -0.000  -0.000  -0.000   0.000   0.000   0.000  -0.000   0.000
 -0.000  -0.000  -0.000   0.000  -0.000   0.000  -0.000   0.000
 -0.000   0.000  -0.000   0.000  -0.000   0.000   0.000  -0.000
 -0.000  -0.000   0.000  -0.000   0.000  -0.000  -0.995   0.000
 -0.000   0.000  -0.000   0.000  -0.000   0.000   0.000  -0.995
 -0.000  -0.000   0.000   0.000   0.000  -0.000  -0.000   0.000
 -0.000  -0.000  -0.000   0.000  -0.000   0.000  -0.000   0.000
 -0.000   0.000  -0.000   0.000  -0.000  -0.000   0.000  -0.000
 -0.000   0.000  -0.000  -0.000   0.000   0.000  -0.000  -0.000
 -0.000   0.000   0.000  -0.000   0.000   0.000  -0.000  -0.000
 total augmentation occupancy for first ion, spin component:           1
  1.992   0.000   0.000  -0.026  -0.000   0.000   0.000   0.000   0.000  -0.000  -0.000   0.000   0.000  -0.000  -0.000   0.000
  0.000   1.992   0.000   0.000  -0.026  -0.000  -0.000   0.000  -0.000   0.000   0.000   0.000   0.000   0.000   0.000  -0.000
  0.000   0.000   1.992  -0.000  -0.000  -0.026   0.000  -0.000   0.000   0.000  -0.000   0.000   0.000  -0.000   0.000   0.000
 -0.026   0.000   0.000   0.201  -0.000  -0.000   0.000   0.000   0.000   0.000   0.000   0.000   0.000   0.000  -0.000   0.000
 -0.000  -0.026  -0.000  -0.000   0.201   0.000   0.000   0.000   0.000   0.000  -0.000   0.000   0.000   0.000   0.000  -0.000
  0.000  -0.000  -0.026  -0.000   0.000   0.201   0.000   0.000   0.000   0.000  -0.000   0.000   0.000   0.000   0.000   0.000
  0.000   0.000   0.000   0.000   0.000   0.000   2.167  -0.000  -0.000   0.000  -0.000  -1.220  -0.000  -0.000  -0.000   0.000
  0.000   0.000   0.000   0.000   0.000  -0.000   0.000   2.167  -0.000   0.000  -0.000  -0.000  -1.220  -0.000  -0.000  -0.000
  0.000   0.000   0.000  -0.000   0.000   0.000  -0.000  -0.000   3.405  -0.000  -0.000   0.000   0.000  -2.182   0.000   0.000
  0.000   0.000   0.000  -0.000   0.000   0.000  -0.000  -0.000  -0.000   2.167   0.000  -0.000   0.000   0.000  -1.220   0.000
  0.000   0.000  -0.000   0.000  -0.000   0.000   0.000   0.000   0.000   0.000   3.405  -0.000  -0.000  -0.000   0.000  -2.182
  0.000   0.000   0.000   0.000   0.000   0.000  -1.220   0.000   0.000   0.000   0.000   1.648  -0.000  -0.000  -0.000   0.000
  0.000   0.000   0.000   0.000   0.000   0.000  -0.000  -1.220  -0.000   0.000  -0.000   0.000   1.648   0.000  -0.000   0.000
  0.000   0.000   0.000   0.000   0.000   0.000  -0.000   0.000  -2.182  -0.000  -0.000  -0.000  -0.000   2.222   0.000   0.000
  0.000   0.000   0.000  -0.000   0.000   0.000   0.000  -0.000   0.000  -1.220  -0.000   0.000   0.000   0.000   1.648   0.000
  0.000   0.000   0.000   0.000   0.000   0.000  -0.000  -0.000   0.000   0.000  -2.182  -0.000   0.000  -0.000  -0.000   2.222
  0.000   0.000   0.000   0.000   0.000  -0.000  -0.000   0.000  -0.000   0.000   0.000   0.000   0.000   0.000   0.000   0.000
  0.000   0.000   0.000   0.000   0.000   0.000   0.000  -0.000  -0.000  -0.000   0.000   0.000   0.000  -0.000   0.000   0.000
 total augmentation occupancy for first ion, spin component:           2
 -0.002   0.000   0.000  -0.009   0.000   0.000   0.000   0.000   0.000  -0.000   0.000   0.000   0.000   0.000   0.000   0.000
  0.000  -0.002   0.000   0.000  -0.009   0.000   0.000   0.000   0.000   0.000   0.000   0.000   0.000   0.000   0.000  -0.000
  0.000   0.000  -0.002  -0.000  -0.000  -0.009   0.000  -0.000  -0.000   0.000  -0.000   0.000   0.000   0.000   0.000  -0.000
 -0.009  -0.000   0.000  -0.020  -0.000   0.000   0.000   0.000  -0.000   0.000   0.000   0.000   0.000   0.000   0.000  -0.000
  0.000  -0.009   0.000  -0.000  -0.020  -0.000   0.000   0.000   0.000   0.000   0.000   0.000   0.000   0.000   0.000   0.000
  0.000  -0.000  -0.009  -0.000   0.000  -0.020   0.000   0.000  -0.000   0.000   0.000   0.000   0.000   0.000   0.000  -0.000
  0.000  -0.000   0.000   0.000   0.000   0.000   1.758   0.000  -0.000  -0.000   0.000  -0.661  -0.000  -0.000  -0.000  -0.000
  0.000   0.000   0.000   0.000   0.000  -0.000   0.000   1.758  -0.000  -0.000  -0.000  -0.000  -0.661   0.000   0.000  -0.000
  0.000   0.000   0.000   0.000   0.000   0.000  -0.000  -0.000   2.821  -0.000   0.000   0.000   0.000  -1.162   0.000  -0.000
  0.000   0.000   0.000  -0.000   0.000   0.000  -0.000  -0.000  -0.000   1.758   0.000   0.000   0.000   0.000  -0.661   0.000
  0.000   0.000  -0.000  -0.000  -0.000   0.000   0.000  -0.000  -0.000   0.000   2.821   0.000  -0.000  -0.000  -0.000  -1.162
  0.000   0.000   0.000   0.000   0.000   0.000  -0.661   0.000   0.000   0.000  -0.000  -0.006   0.000   0.000   0.000  -0.000
  0.000   0.000  -0.000   0.000   0.000   0.000  -0.000  -0.661   0.000   0.000  -0.000  -0.000  -0.006   0.000  -0.000  -0.000
  0.000   0.000   0.000   0.000   0.000   0.000  -0.000   0.000  -1.162   0.000   0.000   0.000   0.000   0.239  -0.000   0.000
 -0.000   0.000   0.000   0.000   0.000   0.000  -0.000   0.000   0.000  -0.661  -0.000  -0.000  -0.000  -0.000  -0.006   0.000
  0.000   0.000  -0.000  -0.000  -0.000  -0.000   0.000  -0.000  -0.000   0.000  -1.162   0.000   0.000  -0.000  -0.000   0.239
  0.000   0.000   0.000   0.000   0.000   0.000   0.000   0.000  -0.000  -0.000  -0.000   0.000   0.000   0.000  -0.000   0.000
  0.000   0.000   0.000   0.000   0.000   0.000   0.000  -0.000  -0.000  -0.000  -0.000  -0.000  -0.000   0.000   0.000   0.000


------------------------ aborting loop because EDIFF is reached ----------------------------------------


 


 total charge     
 
# of ion       s       p       d       tot
------------------------------------------
    1        0.385   6.378   6.075  12.837
    2        0.385   6.378   6.075  12.837
--------------------------------------------------
tot          0.770  12.756  12.149  25.675
 


 magnetization (x)
 
# of ion       s       p       d       tot
------------------------------------------
    1       -0.008  -0.042   2.292   2.243
    2       -0.008  -0.042   2.292   2.243
--------------------------------------------------
tot         -0.015  -0.083   4.584   4.485
 
    CHARGE:  cpu time    0.0099: real time    0.0099
    FORLOC:  cpu time    0.0001: real time    0.0001
    FORNL :  cpu time    0.0604: real time    0.0606
    STRESS:  cpu time    0.1788: real time    0.1793
    FORCOR:  cpu time    0.0041: real time    0.0042
    FORHAR:  cpu time    0.0005: real time    0.0006
    MIXING:  cpu time    0.0005: real time    0.0005
    OFIELD:  cpu time    0.0000: real time    0.0000

  FORCE on cell =-STRESS in cart. coord.  units (eV):
  Direction    XX          YY          ZZ          XY          YZ          ZX
  --------------------------------------------------------------------------------------
  Alpha Z   218.87049   218.87049   218.87049
  Ewald   -1205.52018 -1205.52018 -1205.52018    -0.00000    -0.00000    -0.00000
  Hartree   363.31272   363.31272   363.31272    -0.00000    -0.00000    -0.00000
  E(xc)    -179.77888  -179.77888  -179.77888    -0.00000    -0.00000    -0.00000
  Local     289.64684   289.64684   289.64684    -0.00000     0.00000     0.00000
  n-local   -60.25525   -54.25970   -50.67068     2.77137    -1.55069     0.58877
  augment   285.40798   285.40798   285.40798     0.00000     0.00000     0.00000
  Kinetic   284.00980   282.57188   281.84862     2.92616    -0.73355    -0.07111
  Fock        0.00000     0.00000     0.00000     0.00000     0.00000     0.00000
  -------------------------------------------------------------------------------------
  Total      -0.31280    -0.31280    -0.31280     0.00000     0.00000     0.00000
  in kB     -21.87720   -21.87720   -21.87720     0.00000     0.00000     0.00000
  external pressure =      -21.88 kB  Pullay stress =        0.00 kB


 VOLUME and BASIS-vectors are now :
 -----------------------------------------------------------------------------
  energy-cutoff  :      480.00
  volume of cell :       22.91
      direct lattice vectors                 reciprocal lattice vectors
     2.840052000  0.000000000  0.000000000     0.352106229  0.000000000  0.000000000
     0.000000000  2.840052000  0.000000000     0.000000000  0.352106229  0.000000000
     0.000000000  0.000000000  2.840052000     0.000000000  0.000000000  0.352106229

  length of vectors
     2.840052000  2.840052000  2.840052000     0.352106229  0.352106229  0.352106229


 FORCES acting on ions
    electron-ion (+dipol)            ewald-force                    non-local-force                 convergence-correction
 -----------------------------------------------------------------------------------------------
   0.311E-13 0.281E-13 0.242E-13   -.529E-15 -.103E-14 -.897E-14   0.000E+00 0.000E+00 0.000E+00   0.350E-13 -.618E-14 -.124E-12
   -.156E-12 0.344E-11 0.448E-12   0.472E-14 0.447E-14 0.926E-14   -.388E-25 -.258E-25 -.388E-25   0.351E-14 -.202E-14 0.255E-13
 -----------------------------------------------------------------------------------------------
   -.124E-12 0.347E-11 0.472E-12   0.419E-14 0.343E-14 0.284E-15   -.388E-25 -.258E-25 -.388E-25   0.385E-13 -.820E-14 -.985E-13
 
 
 POSITION                                       TOTAL-FORCE (eV/Angst)
 -----------------------------------------------------------------------------------
      0.00000      0.00000      0.00000         0.000000     -0.000000      0.000000
      1.42003      1.42003      1.42003        -0.000000      0.000000     -0.000000
 -----------------------------------------------------------------------------------
    total drift:                               -0.000000      0.000000      0.000000


--------------------------------------------------------------------------------------------------------



  FREE ENERGIE OF THE ION-ELECTRON SYSTEM (eV)
  ---------------------------------------------------
  free  energy   TOTEN  =       -16.51152267 eV

  energy  without entropy=      -16.51152267  energy(sigma->0) =      -16.51152267
 


--------------------------------------------------------------------------------------------------------


    POTLOK:  cpu time    0.0090: real time    0.0090


--------------------------------------------------------------------------------------------------------


     LOOP+:  cpu time    6.9026: real time    6.9351
    4ORBIT:  cpu time    0.0000: real time    0.0000
 


 total charge     
 
# of ion       s       p       d       tot
------------------------------------------
    1        0.385   6.378   6.075  12.837
    2        0.385   6.378   6.075  12.837
--------------------------------------------------
tot          0.770  12.756  12.149  25.675
 


 magnetization (x)
 
# of ion       s       p       d       tot
------------------------------------------
    1       -0.008  -0.042   2.292   2.243
    2       -0.008  -0.042   2.292   2.243
--------------------------------------------------
tot         -0.015  -0.083   4.584   4.485
 
 BZINTS: Fermi energy:  9.622979; 28.000000 electrons
         Band energy:-399.257934;  BLOECHL correction: -0.034713

 total amount of memory used by VASP MPI-rank0    31902. kBytes
=======================================================================

   base      :      30000. kBytes
   nonlr-proj:        599. kBytes
   fftplans  :        172. kBytes
   grid      :        402. kBytes
   one-center:         31. kBytes
   wavefun   :        698. kBytes
 
  
  
 General timing and accounting informations for this job:
 ========================================================
  
                  Total CPU time used (sec):        7.603
                            User time (sec):        7.448
                          System time (sec):        0.155
                         Elapsed time (sec):        7.650
  
                   Maximum memory used (kb):       52416.
                   Average memory used (kb):           0.
  
                          Minor page faults:        12010
                          Major page faults:            0
                 Voluntary context switches:          152
