       N       E                     dE             d eps       ncg     rms          rms(c)
DAV:   1     0.116738381986E+04    0.11674E+04   -0.31473E+04 37000   0.314E+03
DAV:   2     0.302774298684E+03   -0.86461E+03   -0.78888E+03 44528   0.631E+02
DAV:   3    -0.131126728652E+02   -0.31589E+03   -0.30919E+03 49800   0.334E+02
DAV:   4    -0.595484440900E+02   -0.46436E+02   -0.45448E+02 58432   0.125E+02
DAV:   5    -0.638637306874E+02   -0.43153E+01   -0.41272E+01 64888   0.397E+01    0.275E+01
DAV:   6    -0.766334554889E+02   -0.12770E+02   -0.92803E+01 53032   0.103E+02    0.326E+01
DAV:   7    -0.768788702012E+02   -0.24541E+00   -0.30691E+01 48840   0.645E+01    0.144E+01
DAV:   8    -0.748039235626E+02    0.20749E+01   -0.95544E+00 48136   0.400E+01    0.663E+00
DAV:   9    -0.750741631284E+02   -0.27024E+00   -0.79670E+00 54200   0.195E+01    0.635E+00
DAV:  10    -0.748531561885E+02    0.22101E+00   -0.19103E+00 46952   0.144E+01    0.333E+00
DAV:  11    -0.749337178171E+02   -0.80562E-01   -0.56275E-01 64272   0.474E+00    0.179E+00
DAV:  12    -0.749210852285E+02    0.12633E-01   -0.71258E-02 58024   0.195E+00    0.122E+00
DAV:  13    -0.749119860193E+02    0.90992E-02   -0.22929E-02 58088   0.123E+00    0.746E-01
DAV:  14    -0.749087854862E+02    0.32005E-02   -0.83353E-03 56176   0.741E-01    0.351E-01
DAV:  15    -0.749084774604E+02    0.30803E-03   -0.78442E-03 52336   0.772E-01    0.166E-01
DAV:  16    -0.749085705020E+02   -0.93042E-04   -0.20630E-03 65192   0.256E-01    0.171E-01
DAV:  17    -0.749085624842E+02    0.80178E-05   -0.26737E-04 64600   0.116E-01    0.158E-01
DAV:  18    -0.749082844975E+02    0.27799E-03   -0.27941E-04 52248   0.168E-01    0.618E-02
DAV:  19    -0.749082343330E+02    0.50165E-04   -0.11396E-04 57040   0.768E-02    0.207E-02
DAV:  20    -0.749082411917E+02   -0.68588E-05   -0.37436E-05 47424   0.414E-02    0.226E-02
DAV:  21    -0.749082496737E+02   -0.84819E-05   -0.22903E-05 27696   0.262E-02    0.279E-02
DAV:  22    -0.749082382658E+02    0.11408E-04   -0.57942E-06 27952   0.390E-02    0.247E-02
DAV:  23    -0.749082275011E+02    0.10765E-04   -0.44456E-06 31664   0.332E-02    0.208E-02
DAV:  24    -0.749082234911E+02    0.40100E-05   -0.37679E-06 29488   0.237E-02    0.192E-02
DAV:  25    -0.749082241907E+02   -0.69959E-06   -0.18923E-06 24448   0.161E-02
   1 F= -.74908224E+02 E0= -.74908224E+02  d E =0.000000E+00  mag=     0.0000
