 vasp.5.4.4.18Apr17-6-g9f103f2a35 (build Apr 28 2018 00:24:27) complex          
  
 executed on             LinuxIFC date 2021.04.17  17:39:48
 running on    8 total cores
 distrk:  each k-point on    8 cores,    1 groups
 distr:  one band on NCORES_PER_BAND=   4 cores,    2 groups


--------------------------------------------------------------------------------------------------------


 INCAR:
 POTCAR:    PAW_PBE Eu 23Dec2003                  
 POTCAR:    PAW_PBE S 06Sep2000                   
 POTCAR:    PAW_PBE Eu 23Dec2003                  
   VRHFIN =Eu : [core=Kr4d]                                                     
   LEXCH  = PE                                                                  
   EATOM  =  2619.8085 eV,  192.5505 Ry                                         
                                                                                
   TITEL  = PAW_PBE Eu 23Dec2003                                                
   LULTRA =        F    use ultrasoft PP ?                                      
   IUNSCR =        1    unscreen: 0-lin 1-nonlin 2-no                           
   RPACOR =    2.300    partial core radius                                     
   POMASS =  151.965; ZVAL   =   17.000    mass and valenz                      
   RCORE  =    2.800    outmost cutoff radius                                   
   RWIGS  =    2.800; RWIGS  =    1.482    wigner-seitz radius (au A)           
   ENMAX  =  249.668; ENMIN  =  187.251 eV                                      
   RCLOC  =    2.308    cutoff for local pot                                    
   LCOR   =        T    correct aug charges                                     
   LPAW   =        T    paw PP                                                  
   EAUG   =  549.628                                                            
   DEXC   =    0.000                                                            
   RMAX   =    2.870    core radius for proj-oper                               
   RAUG   =    1.300    factor for augmentation sphere                          
   RDEP   =    2.887    radius for radial grids                                 
   RDEPT  =    2.221    core radius for aug-charge                              
                                                                                
   Atomic configuration                                                         
   14 entries                                                                   
     n  l   j            E        occ.                                          
     1  0  0.50    -48354.7667   2.0000                                         
     2  0  0.50     -7939.6472   2.0000                                         
     2  1  1.50     -7072.6637   6.0000                                         
     3  0  0.50     -1747.1875   2.0000                                         
     3  1  1.50     -1477.5221   6.0000                                         
     3  2  2.50     -1117.4686  10.0000                                         
     4  0  0.50      -346.8682   2.0000                                         
     4  1  1.50      -258.1962   6.0000                                         
     4  2  2.50      -134.7724  10.0000                                         
     5  0  0.50       -44.6510   2.0000                                         
     6  0  0.50        -3.6227   2.0000                                         
     5  1  1.50       -23.7639   6.0000                                         
     5  2  2.50        -1.3130   0.0000                                         
     4  3  2.50        -2.7310   7.0000                                         
   Description                                                                  
     l       E           TYP  RCUT    TYP  RCUT                                 
     0    -44.6510453     23  2.400                                             
     0     -3.6226685     23  2.400                                             
     1    -23.7638687     23  2.400                                             
     1     27.2116520     23  2.400                                             
     2     -1.3129622     23  2.500                                             
     2     13.6058260     23  2.500                                             
     3     -2.7309948     23  2.800                                             
     3     -3.4014565     23  2.800                                             
  local pseudopotential read in
  partial core-charges read in
  partial kinetic energy density read in
  atomic valenz-charges read in
  non local Contribution for L=           0  read in
    real space projection operators read in
  non local Contribution for L=           0  read in
    real space projection operators read in
  non local Contribution for L=           1  read in
    real space projection operators read in
  non local Contribution for L=           1  read in
    real space projection operators read in
  non local Contribution for L=           2  read in
    real space projection operators read in
  non local Contribution for L=           2  read in
    real space projection operators read in
  non local Contribution for L=           3  read in
    real space projection operators read in
  non local Contribution for L=           3  read in
    real space projection operators read in
    PAW grid and wavefunctions read in
 
   number of l-projection  operators is LMAX  =           8
   number of lm-projection operators is LMMAX =          32
 
 POTCAR:    PAW_PBE S 06Sep2000                   
   VRHFIN =S : s2p4                                                             
   LEXCH  = PE                                                                  
   EATOM  =   276.8230 eV,   20.3459 Ry                                         
                                                                                
   TITEL  = PAW_PBE S 06Sep2000                                                 
   LULTRA =        F    use ultrasoft PP ?                                      
   IUNSCR =        1    unscreen: 0-lin 1-nonlin 2-no                           
   RPACOR =    1.500    partial core radius                                     
   POMASS =   32.066; ZVAL   =    6.000    mass and valenz                      
   RCORE  =    1.900    outmost cutoff radius                                   
   RWIGS  =    2.200; RWIGS  =    1.164    wigner-seitz radius (au A)           
   ENMAX  =  258.689; ENMIN  =  194.016 eV                                      
   ICORE  =        2    local potential                                         
   LCOR   =        T    correct aug charges                                     
   LPAW   =        T    paw PP                                                  
   EAUG   =  335.092                                                            
   DEXC   =    0.000                                                            
   RMAX   =    1.942    core radius for proj-oper                               
   RAUG   =    1.300    factor for augmentation sphere                          
   RDEP   =    1.954    radius for radial grids                                 
   RDEPT  =    1.744    core radius for aug-charge                              
                                                                                
   Atomic configuration                                                         
    6 entries                                                                   
     n  l   j            E        occ.                                          
     1  0  0.50     -2405.8406   2.0000                                         
     2  0  0.50      -211.7007   2.0000                                         
     2  1  1.50      -156.4958   6.0000                                         
     3  0  0.50       -17.2562   2.0000                                         
     3  1  0.50        -7.0085   4.0000                                         
     3  2  1.50        -6.8029   0.0000                                         
   Description                                                                  
     l       E           TYP  RCUT    TYP  RCUT                                 
     0    -17.2561641     23  1.900                                             
     0    -15.8743224     23  1.900                                             
     1     -7.0085400     23  1.900                                             
     1     -2.7779785     23  1.900                                             
     2     -6.8029130     23  1.900                                             
  local pseudopotential read in
  partial core-charges read in
  partial kinetic energy density read in
  atomic valenz-charges read in
  non local Contribution for L=           0  read in
    real space projection operators read in
  non local Contribution for L=           0  read in
    real space projection operators read in
  non local Contribution for L=           1  read in
    real space projection operators read in
  non local Contribution for L=           1  read in
    real space projection operators read in
    PAW grid and wavefunctions read in
 
   number of l-projection  operators is LMAX  =           4
   number of lm-projection operators is LMMAX =           8
 

 ----------------------------------------------------------------------------- 
|                                                                             |
|  ADVICE TO THIS USER RUNNING 'VASP/VAMP'   (HEAR YOUR MASTER'S VOICE ...):  |
|                                                                             |
|      You have a (more or less) 'small supercell' and for smaller cells      |
|      it is recommended  to use the reciprocal-space projection scheme!      |
|      The real space optimization is not  efficient for small cells and it   |
|      is also less accurate ...                                              |
|      Therefore set LREAL=.FALSE. in the  INCAR file                         |
|                                                                             |
 ----------------------------------------------------------------------------- 

 Optimization of the real space projectors (new method)

 maximal supplied QI-value         = 13.42
 optimisation between [QCUT,QGAM] = [ 11.67, 23.35] = [ 38.16,152.62] Ry 
 Optimized for a Real-space Cutoff    1.63 Angstroem

   l    n(q)    QCUT    max X(q) W(low)/X(q) W(high)/X(q)  e(spline) 
   0     11    11.673    10.400    0.14E-04    0.18E-05    0.24E-07
   0     11    11.673    10.768    0.21E-04    0.32E-05    0.49E-07
   1     11    11.673     4.094    0.40E-05    0.13E-04    0.93E-07
   1     11    11.673     4.009    0.11E-04    0.46E-04    0.33E-06
   2     10    11.673    29.030    0.79E-04    0.60E-04    0.70E-06
   2     10    11.673    19.941    0.80E-04    0.60E-04    0.71E-06
   3     10    11.673    88.889    0.23E-03    0.29E-03    0.30E-06
   3     10    11.673    76.102    0.23E-03    0.30E-03    0.30E-06
 Optimization of the real space projectors (new method)

 maximal supplied QI-value         = 19.84
 optimisation between [QCUT,QGAM] = [ 11.51, 23.22] = [ 37.09,150.92] Ry 
 Optimized for a Real-space Cutoff    1.21 Angstroem

   l    n(q)    QCUT    max X(q) W(low)/X(q) W(high)/X(q)  e(spline) 
   0      8    11.508   187.594    0.96E-04    0.18E-03    0.54E-07
   0      8    11.508   164.243    0.96E-04    0.18E-03    0.54E-07
   1      8    11.508    67.533    0.18E-03    0.65E-04    0.94E-07
   1      8    11.508    50.729    0.18E-03    0.63E-04    0.92E-07
  PAW_PBE Eu 23Dec2003                  :
 energy of atom  1       EATOM=-2619.8085
 kinetic energy error for atom=    0.0015 (will be added to EATOM!!)
  PAW_PBE S 06Sep2000                   :
 energy of atom  2       EATOM= -276.8230
 kinetic energy error for atom=    0.0016 (will be added to EATOM!!)
 
 
 POSCAR: Eu4 S4                                  
  positions in direct lattice
  velocities in cartesian coordinates
 exchange correlation table for  LEXCH =        8
   RHO(1)=    0.500       N(1)  =     2000
   RHO(2)=  100.500       N(2)  =     4000
 


--------------------------------------------------------------------------------------------------------


 ion  position               nearest neighbor table
   1  0.500  0.500  0.000-   5 2.92   5 2.92   7 2.92   7 2.92   8 2.92   6 2.92
   2  0.750  0.250  0.500-   6 2.92   6 2.92   8 2.92   8 2.92   5 2.92   7 2.92
   3  0.250  0.750  0.500-   8 2.92   8 2.92   6 2.92   6 2.92   7 2.92   5 2.92
   4  0.000  0.000  0.000-   7 2.92   7 2.92   5 2.92   5 2.92   6 2.92   8 2.92
   5  0.500  0.000  0.000-   1 2.92   1 2.92   4 2.92   4 2.92   3 2.92   2 2.92
   6  0.750  0.750  0.500-   2 2.92   2 2.92   3 2.92   3 2.92   1 2.92   4 2.92
   7  0.000  0.500  0.000-   4 2.92   4 2.92   1 2.92   1 2.92   2 2.92   3 2.92
   8  0.250  0.250  0.500-   3 2.92   3 2.92   2 2.92   2 2.92   4 2.92   1 2.92
 
  LATTYP: Found a triclinic cell.
 ALAT       =    10.9347054558
 B/A-ratio  =     0.5345224862
 C/A-ratio  =     1.0690450216
 COS(alpha) =     0.0000000139
 COS(beta)  =     0.5345225068
 COS(gamma) =     0.8017837253
  
  Lattice vectors:
  
 A1 = (  -6.1993950000,   8.3515200000,   3.3745220000)
 A2 = (   0.0000000000,   4.7722970000,   3.3745230000)
 A3 = (  -8.2658600000,   4.7722970000,  -6.7490480000)


Analysis of symmetry for initial positions (statically):
=====================================================================
 Subroutine PRICEL returns following result:
 
  LATTYP: Found a base centered monoclinic cell.
 ALAT       =    18.0150233457
 B/A-ratio  =     0.2294157599
 C/A-ratio  =     0.3244428454
 COS(beta)  =    -0.9486832884
  
  Lattice vectors:
  
 A1 = (  -8.2658600000,  -2.3861477500,   3.3745225000)
 A2 = (  -6.1993950000,  -1.1930735000,   6.7490460000)
 A3 = (   4.1329300000,   2.3861480000,  -3.3745230000)
 
   4 primitive cells build up your supercell.
 

 Routine SETGRP: Setting up the symmetry group for a 
 triclinic supercell.


 Subroutine GETGRP returns: Found  2 space group operations
 (whereof  2 operations were pure point group operations)
 out of a pool of  2 trial point group operations.


The static configuration has the point symmetry S_2 .


Analysis of symmetry for dynamics (positions and initial velocities):
=====================================================================
 Subroutine PRICEL returns following result:
 
  LATTYP: Found a base centered monoclinic cell.
 ALAT       =    18.0150233457
 B/A-ratio  =     0.2294157599
 C/A-ratio  =     0.3244428454
 COS(beta)  =    -0.9486832884
  
  Lattice vectors:
  
 A1 = (  -8.2658600000,  -2.3861477500,   3.3745225000)
 A2 = (  -6.1993950000,  -1.1930735000,   6.7490460000)
 A3 = (   4.1329300000,   2.3861480000,  -3.3745230000)
 
   4 primitive cells build up your supercell.
 

 Routine SETGRP: Setting up the symmetry group for a 
 triclinic supercell.


 Subroutine GETGRP returns: Found  2 space group operations
 (whereof  2 operations were pure point group operations)
 out of a pool of  2 trial point group operations.


The dynamic configuration has the point symmetry S_2 .


Analysis of structural, dynamic, and magnetic symmetry:
=====================================================================
 Subroutine PRICEL returns:
 Original cell was already a primitive cell.
 

 Routine SETGRP: Setting up the symmetry group for a 
 triclinic supercell.


 Subroutine GETGRP returns: Found  2 space group operations
 (whereof  1 operations were pure point group operations)
 out of a pool of  2 trial point group operations.


The magnetic configuration has the point symmetry C_1 .
 The point group associated with its full space group is S_2 .


 Subroutine INISYM returns: Found  2 space group operations
 (whereof  1 operations are pure point group operations),
 and found     1 'primitive' translations

 
 
 KPOINTS: pymatgen v2019.10.16 with grid density =

Automatic generation of k-mesh.
Space group operators:
 irot       det(A)        alpha          n_x          n_y          n_z        tau_x        tau_y        tau_z
    1     1.000000     0.000001     1.000000     0.000000     0.000000     0.000000     0.000000     0.000000
    2    -1.000000     0.000001     1.000000     0.000000     0.000000     1.250000     0.750000    -1.500000
 
 Subroutine IBZKPT returns following result:
 ===========================================
 
 Found    148 irreducible k-points:
 
 Following reciprocal coordinates:
            Coordinates               Weight
  0.000000  0.000000  0.000000      1.000000
  0.142857  0.000000  0.000000      2.000000
  0.285714  0.000000  0.000000      2.000000
  0.428571  0.000000  0.000000      2.000000
  0.000000  0.142857  0.000000      2.000000
  0.142857  0.142857 -0.000000      2.000000
  0.285714  0.142857 -0.000000      2.000000
  0.428571  0.142857 -0.000000      2.000000
 -0.428571  0.142857  0.000000      2.000000
 -0.285714  0.142857  0.000000      2.000000
 -0.142857  0.142857 -0.000000      2.000000
  0.000000  0.285714  0.000000      2.000000
  0.142857  0.285714 -0.000000      2.000000
  0.285714  0.285714 -0.000000      2.000000
  0.428571  0.285714  0.000000      2.000000
 -0.428571  0.285714  0.000000      2.000000
 -0.285714  0.285714  0.000000      2.000000
 -0.142857  0.285714 -0.000000      2.000000
 -0.000000  0.428571 -0.000000      2.000000
  0.142857  0.428571 -0.000000      2.000000
  0.285714  0.428571 -0.000000      2.000000
  0.428571  0.428571 -0.000000      2.000000
 -0.428571  0.428571 -0.000000      2.000000
 -0.285714  0.428571 -0.000000      2.000000
 -0.142857  0.428571 -0.000000      2.000000
 -0.000000 -0.000000  0.166667      2.000000
  0.142857  0.000000  0.166667      2.000000
  0.285714  0.000000  0.166667      2.000000
  0.428571  0.000000  0.166667      2.000000
 -0.428571 -0.000000  0.166667      2.000000
 -0.285714 -0.000000  0.166667      2.000000
 -0.142857 -0.000000  0.166667      2.000000
  0.000000  0.142857  0.166667      2.000000
  0.142857  0.142857  0.166667      2.000000
  0.285714  0.142857  0.166667      2.000000
  0.428571  0.142857  0.166667      2.000000
 -0.428571  0.142857  0.166667      2.000000
 -0.285714  0.142857  0.166667      2.000000
 -0.142857  0.142857  0.166667      2.000000
  0.000000  0.285714  0.166667      2.000000
  0.142857  0.285714  0.166667      2.000000
  0.285714  0.285714  0.166667      2.000000
  0.428571  0.285714  0.166667      2.000000
 -0.428571  0.285714  0.166667      2.000000
 -0.285714  0.285714  0.166667      2.000000
 -0.142857  0.285714  0.166667      2.000000
 -0.000000  0.428571  0.166667      2.000000
  0.142857  0.428571  0.166667      2.000000
  0.285714  0.428571  0.166667      2.000000
  0.428571  0.428571  0.166667      2.000000
 -0.428571  0.428571  0.166667      2.000000
 -0.285714  0.428571  0.166667      2.000000
 -0.142857  0.428571  0.166667      2.000000
 -0.000000 -0.428571  0.166667      2.000000
  0.142857 -0.428571  0.166667      2.000000
  0.285714 -0.428571  0.166667      2.000000
  0.428571 -0.428571  0.166667      2.000000
 -0.428571 -0.428571  0.166667      2.000000
 -0.285714 -0.428571  0.166667      2.000000
 -0.142857 -0.428571  0.166667      2.000000
 -0.000000 -0.285714  0.166667      2.000000
  0.142857 -0.285714  0.166667      2.000000
  0.285714 -0.285714  0.166667      2.000000
  0.428571 -0.285714  0.166667      2.000000
 -0.428571 -0.285714  0.166667      2.000000
 -0.285714 -0.285714  0.166667      2.000000
 -0.142857 -0.285714  0.166667      2.000000
 -0.000000 -0.142857  0.166667      2.000000
  0.142857 -0.142857  0.166667      2.000000
  0.285714 -0.142857  0.166667      2.000000
  0.428571 -0.142857  0.166667      2.000000
 -0.428571 -0.142857  0.166667      2.000000
 -0.285714 -0.142857  0.166667      2.000000
 -0.142857 -0.142857  0.166667      2.000000
 -0.000000 -0.000000  0.333333      2.000000
  0.142857 -0.000000  0.333333      2.000000
  0.285714 -0.000000  0.333333      2.000000
  0.428571  0.000000  0.333333      2.000000
 -0.428571 -0.000000  0.333333      2.000000
 -0.285714 -0.000000  0.333333      2.000000
 -0.142857 -0.000000  0.333333      2.000000
  0.000000  0.142857  0.333333      2.000000
  0.142857  0.142857  0.333333      2.000000
  0.285714  0.142857  0.333333      2.000000
  0.428571  0.142857  0.333333      2.000000
 -0.428571  0.142857  0.333333      2.000000
 -0.285714  0.142857  0.333333      2.000000
 -0.142857  0.142857  0.333333      2.000000
 -0.000000  0.285714  0.333333      2.000000
  0.142857  0.285714  0.333333      2.000000
  0.285714  0.285714  0.333333      2.000000
  0.428571  0.285714  0.333333      2.000000
 -0.428571  0.285714  0.333333      2.000000
 -0.285714  0.285714  0.333333      2.000000
 -0.142857  0.285714  0.333333      2.000000
  0.000000  0.428571  0.333333      2.000000
  0.142857  0.428571  0.333333      2.000000
  0.285714  0.428571  0.333333      2.000000
  0.428571  0.428571  0.333333      2.000000
 -0.428571  0.428571  0.333333      2.000000
 -0.285714  0.428571  0.333333      2.000000
 -0.142857  0.428571  0.333333      2.000000
  0.000000 -0.428571  0.333333      2.000000
  0.142857 -0.428571  0.333333      2.000000
  0.285714 -0.428571  0.333333      2.000000
  0.428571 -0.428571  0.333333      2.000000
 -0.428571 -0.428571  0.333333      2.000000
 -0.285714 -0.428571  0.333333      2.000000
 -0.142857 -0.428571  0.333333      2.000000
 -0.000000 -0.285714  0.333333      2.000000
  0.142857 -0.285714  0.333333      2.000000
  0.285714 -0.285714  0.333333      2.000000
  0.428571 -0.285714  0.333333      2.000000
 -0.428571 -0.285714  0.333333      2.000000
 -0.285714 -0.285714  0.333333      2.000000
 -0.142857 -0.285714  0.333333      2.000000
 -0.000000 -0.142857  0.333333      2.000000
  0.142857 -0.142857  0.333333      2.000000
  0.285714 -0.142857  0.333333      2.000000
  0.428571 -0.142857  0.333333      2.000000
 -0.428571 -0.142857  0.333333      2.000000
 -0.285714 -0.142857  0.333333      2.000000
 -0.142857 -0.142857  0.333333      2.000000
 -0.000000 -0.000000  0.500000      1.000000
  0.142857 -0.000000  0.500000      2.000000
  0.285714  0.000000  0.500000      2.000000
  0.428571  0.000000  0.500000      2.000000
 -0.000000  0.142857  0.500000      2.000000
  0.142857  0.142857  0.500000      2.000000
  0.285714  0.142857  0.500000      2.000000
  0.428571  0.142857  0.500000      2.000000
 -0.428571  0.142857  0.500000      2.000000
 -0.285714  0.142857  0.500000      2.000000
 -0.142857  0.142857  0.500000      2.000000
 -0.000000  0.285714  0.500000      2.000000
  0.142857  0.285714  0.500000      2.000000
  0.285714  0.285714  0.500000      2.000000
  0.428571  0.285714  0.500000      2.000000
 -0.428571  0.285714  0.500000      2.000000
 -0.285714  0.285714  0.500000      2.000000
 -0.142857  0.285714  0.500000      2.000000
 -0.000000  0.428571  0.500000      2.000000
  0.142857  0.428571  0.500000      2.000000
  0.285714  0.428571  0.500000      2.000000
  0.428571  0.428571  0.500000      2.000000
 -0.428571  0.428571  0.500000      2.000000
 -0.285714  0.428571  0.500000      2.000000
 -0.142857  0.428571  0.500000      2.000000
 
 Following cartesian coordinates:
            Coordinates               Weight
  0.000000  0.000000  0.000000      1.000000
 -0.008641  0.024946  0.007056      2.000000
 -0.017283  0.049891  0.014111      2.000000
 -0.025924  0.074837  0.021167      2.000000
 -0.025924 -0.004989  0.007056      2.000000
 -0.034566  0.019956  0.014111      2.000000
 -0.043207  0.044902  0.021167      2.000000
 -0.051848  0.069848  0.028223      2.000000
 -0.000000 -0.079826 -0.014111      2.000000
 -0.008641 -0.054880 -0.007056      2.000000
 -0.017283 -0.029935  0.000000      2.000000
 -0.051848 -0.009978  0.014111      2.000000
 -0.060490  0.014967  0.021167      2.000000
 -0.069131  0.039913  0.028223      2.000000
 -0.077773  0.064858  0.035278      2.000000
 -0.025924 -0.084815 -0.007056      2.000000
 -0.034566 -0.059869  0.000000      2.000000
 -0.043207 -0.034924  0.007056      2.000000
 -0.077773 -0.014967  0.021167      2.000000
 -0.086414  0.009978  0.028223      2.000000
 -0.095055  0.034924  0.035278      2.000000
 -0.103697  0.059869  0.042334      2.000000
 -0.051848 -0.089804  0.000000      2.000000
 -0.060490 -0.064858  0.007056      2.000000
 -0.069131 -0.039913  0.014111      2.000000
  0.020163 -0.011641  0.016463      2.000000
  0.011522  0.013304  0.023519      2.000000
  0.002880  0.038250  0.030575      2.000000
 -0.005761  0.063195  0.037630      2.000000
  0.046087 -0.086478 -0.004704      2.000000
  0.037446 -0.061532  0.002352      2.000000
  0.028805 -0.036587  0.009408      2.000000
 -0.005761 -0.016630  0.023519      2.000000
 -0.014402  0.008315  0.030575      2.000000
 -0.023044  0.033261  0.037630      2.000000
 -0.031685  0.058206  0.044686      2.000000
  0.020163 -0.091467  0.002352      2.000000
  0.011522 -0.066521  0.009408      2.000000
  0.002880 -0.041576  0.016463      2.000000
 -0.031685 -0.021619  0.030575      2.000000
 -0.040327  0.003326  0.037630      2.000000
 -0.048968  0.028272  0.044686      2.000000
 -0.057609  0.053217  0.051742      2.000000
 -0.005761 -0.096456  0.009408      2.000000
 -0.014402 -0.071511  0.016463      2.000000
 -0.023044 -0.046565  0.023519      2.000000
 -0.057609 -0.026609  0.037630      2.000000
 -0.066251 -0.001663  0.044686      2.000000
 -0.074892  0.023283  0.051742      2.000000
 -0.083534  0.048228  0.058797      2.000000
 -0.031685 -0.101445  0.016463      2.000000
 -0.040327 -0.076500  0.023519      2.000000
 -0.048968 -0.051554  0.030575      2.000000
  0.097936  0.003326 -0.004704      2.000000
  0.089294  0.028272  0.002352      2.000000
  0.080653  0.053217  0.009408      2.000000
  0.072012  0.078163  0.016463      2.000000
  0.123860 -0.071511 -0.025871      2.000000
  0.115219 -0.046565 -0.018815      2.000000
  0.106577 -0.021619 -0.011759      2.000000
  0.072012 -0.001663  0.002352      2.000000
  0.063370  0.023283  0.009408      2.000000
  0.054729  0.048228  0.016463      2.000000
  0.046087  0.073174  0.023519      2.000000
  0.097936 -0.076500 -0.018815      2.000000
  0.089294 -0.051554 -0.011759      2.000000
  0.080653 -0.026609 -0.004704      2.000000
  0.046087 -0.006652  0.009408      2.000000
  0.037446  0.018293  0.016463      2.000000
  0.028805  0.043239  0.023519      2.000000
  0.020163  0.068185  0.030575      2.000000
  0.072012 -0.081489 -0.011759      2.000000
  0.063370 -0.056543 -0.004704      2.000000
  0.054729 -0.031598  0.002352      2.000000
  0.040327 -0.023283  0.032926      2.000000
  0.031685  0.001663  0.039982      2.000000
  0.023044  0.026609  0.047038      2.000000
  0.014402  0.051554  0.054093      2.000000
  0.066251 -0.098119  0.011759      2.000000
  0.057609 -0.073174  0.018815      2.000000
  0.048968 -0.048228  0.025871      2.000000
  0.014402 -0.028272  0.039982      2.000000
  0.005761 -0.003326  0.047038      2.000000
 -0.002880  0.021619  0.054093      2.000000
 -0.011522  0.046565  0.061149      2.000000
  0.040327 -0.103108  0.018815      2.000000
  0.031685 -0.078163  0.025871      2.000000
  0.023044 -0.053217  0.032926      2.000000
 -0.011522 -0.033261  0.047038      2.000000
 -0.020163 -0.008315  0.054093      2.000000
 -0.028805  0.016630  0.061149      2.000000
 -0.037446  0.041576  0.068205      2.000000
  0.014402 -0.108097  0.025871      2.000000
  0.005761 -0.083152  0.032926      2.000000
 -0.002880 -0.058206  0.039982      2.000000
 -0.037446 -0.038250  0.054093      2.000000
 -0.046087 -0.013304  0.061149      2.000000
 -0.054729  0.011641  0.068205      2.000000
 -0.063370  0.036587  0.075260      2.000000
 -0.011522 -0.113087  0.032926      2.000000
 -0.020163 -0.088141  0.039982      2.000000
 -0.028805 -0.063195  0.047038      2.000000
  0.118099 -0.008315  0.011759      2.000000
  0.109458  0.016630  0.018815      2.000000
  0.100816  0.041576  0.025871      2.000000
  0.092175  0.066521  0.032926      2.000000
  0.144023 -0.083152 -0.009408      2.000000
  0.135382 -0.058206 -0.002352      2.000000
  0.126740 -0.033261  0.004704      2.000000
  0.092175 -0.013304  0.018815      2.000000
  0.083533  0.011641  0.025871      2.000000
  0.074892  0.036587  0.032926      2.000000
  0.066251  0.061532  0.039982      2.000000
  0.118099 -0.088141 -0.002352      2.000000
  0.109458 -0.063195  0.004704      2.000000
  0.100816 -0.038250  0.011759      2.000000
  0.066251 -0.018293  0.025871      2.000000
  0.057609  0.006652  0.032926      2.000000
  0.048968  0.031598  0.039982      2.000000
  0.040327  0.056543  0.047038      2.000000
  0.092175 -0.093130  0.004704      2.000000
  0.083533 -0.068185  0.011759      2.000000
  0.074892 -0.043239  0.018815      2.000000
  0.060490 -0.034924  0.049390      1.000000
  0.051848 -0.009978  0.056445      2.000000
  0.043207  0.014967  0.063501      2.000000
  0.034566  0.039913  0.070557      2.000000
  0.034566 -0.039913  0.056445      2.000000
  0.025924 -0.014967  0.063501      2.000000
  0.017283  0.009978  0.070557      2.000000
  0.008641  0.034924  0.077612      2.000000
  0.060490 -0.114750  0.035278      2.000000
  0.051848 -0.089804  0.042334      2.000000
  0.043207 -0.064858  0.049390      2.000000
  0.008641 -0.044902  0.063501      2.000000
 -0.000000 -0.019956  0.070557      2.000000
 -0.008641  0.004989  0.077612      2.000000
 -0.017283  0.029935  0.084668      2.000000
  0.034566 -0.119739  0.042334      2.000000
  0.025924 -0.094793  0.049390      2.000000
  0.017283 -0.069848  0.056445      2.000000
 -0.017283 -0.049891  0.070557      2.000000
 -0.025924 -0.024946  0.077612      2.000000
 -0.034566  0.000000  0.084668      2.000000
 -0.043207  0.024946  0.091724      2.000000
  0.008641 -0.124728  0.049390      2.000000
 -0.000000 -0.099782  0.056445      2.000000
 -0.008641 -0.074837  0.063501      2.000000
 
 TETIRR: Found    880 inequivalent tetrahedra from     1764


--------------------------------------------------------------------------------------------------------




 Dimension of arrays:
   k-points           NKPTS =    148   k-points in BZ     NKDIM =    148   number of bands    NBANDS=     56
   number of dos      NEDOS =    301   number of ions     NIONS =      8
   non local maximal  LDIM  =      8   non local SUM 2l+1 LMDIM =     32
   total plane-waves  NPLWV = 124416
   max r-space proj   IRMAX =  11295   max aug-charges    IRDMAX=  35817
   dimension x,y,z NGX =    48 NGY =   48 NGZ =   54
   dimension x,y,z NGXF=    96 NGYF=   96 NGZF=  108
   support grid    NGXF=    96 NGYF=   96 NGZF=  108
   ions per type =               4   4
   NGX,Y,Z   is equivalent  to a cutoff of  13.65, 13.65, 12.54 a.u.
   NGXF,Y,Z  is equivalent  to a cutoff of  27.31, 27.31, 25.08 a.u.

 SYSTEM =  unknown system                          
 POSCAR =  Eu4 S4                                  

 Startparameter for this run:
   NWRITE =      2    write-flag & timer
   PREC   = accura    normal or accurate (medium, high low for compatibility)
   ISTART =      0    job   : 0-new  1-cont  2-samecut
   ICHARG =      2    charge: 1-file 2-atom 10-const
   ISPIN  =      2    spin polarized calculation?
   LNONCOLLINEAR =      F non collinear calculations
   LSORBIT =      F    spin-orbit coupling
   INIWAV =      1    electr: 0-lowe 1-rand  2-diag
   LASPH  =      T    aspherical Exc in radial PAW
   METAGGA=      F    non-selfconsistent MetaGGA calc.

 Electronic Relaxation 1
   ENCUT  =  520.0 eV  38.22 Ry    6.18 a.u.  10.87 10.87 13.31*2*pi/ulx,y,z
   ENINI  =  520.0     initial cutoff
   ENAUG  =  549.6 eV  augmentation charge cutoff
   NELM   =    120;   NELMIN=  2; NELMDL=  0     # of ELM steps 
   EDIFF  = 0.1E-05   stopping-criterion for ELM
   LREAL  =      T    real-space projection
   NLSPLINE    = F    spline interpolate recip. space projectors
   LCOMPAT=      F    compatible to vasp.4.4
   GGA_COMPAT  = T    GGA compatible to vasp.4.4-vasp.4.6
   LMAXPAW     = -100 max onsite density
   LMAXMIX     =    4 max onsite mixed and CHGCAR
   VOSKOWN=      0    Vosko Wilk Nusair interpolation
   ROPT   =   -0.00025  -0.00025
 Ionic relaxation
   EDIFFG = 0.1E-04   stopping-criterion for IOM
   NSW    =      0    number of steps for IOM
   NBLOCK =      1;   KBLOCK =      1    inner block; outer block 
   IBRION =     -1    ionic relax: 0-MD 1-quasi-New 2-CG
   NFREE  =      0    steps in history (QN), initial steepest desc. (CG)
   ISIF   =      3    stress and relaxation
   IWAVPR =     10    prediction:  0-non 1-charg 2-wave 3-comb
   ISYM   =      2    0-nonsym 1-usesym 2-fastsym
   LCORR  =      T    Harris-Foulkes like correction to forces

   POTIM  = 0.5000    time-step for ionic-motion
   TEIN   =    0.0    initial temperature
   TEBEG  =    0.0;   TEEND  =   0.0 temperature during run
   SMASS  =  -3.00    Nose mass-parameter (am)
   estimated Nose-frequenzy (Omega)   =  0.10E-29 period in steps =****** mass=  -0.781E-27a.u.
   SCALEE = 1.0000    scale energy and forces
   NPACO  =    256;   APACO  = 16.0  distance and # of slots for P.C.
   PSTRESS=    0.0 pullay stress

  Mass of Ions in am
   POMASS = 151.97 32.07
  Ionic Valenz
   ZVAL   =  17.00  6.00
  Atomic Wigner-Seitz radii
   RWIGS  =  -1.00 -1.00
  virtual crystal weights 
   VCA    =   1.00  1.00
   NELECT =      92.0000    total number of electrons
   NUPDOWN=      -1.0000    fix difference up-down

 DOS related values:
   EMIN   =  10.00;   EMAX   =-10.00  energy-range for DOS
   EFERMI =   0.00
   ISMEAR =    -5;   SIGMA  =   0.05  broadening in eV -4-tet -1-fermi 0-gaus

 Electronic relaxation 2 (details)
   IALGO  =     38    algorithm
   LDIAG  =      T    sub-space diagonalisation (order eigenvalues)
   LSUBROT=      F    optimize rotation matrix (better conditioning)
   TURBO    =      0    0=normal 1=particle mesh
   IRESTART =      0    0=no restart 2=restart with 2 vectors
   NREBOOT  =      0    no. of reboots
   NMIN     =      0    reboot dimension
   EREF     =   0.00    reference energy to select bands
   IMIX   =      4    mixing-type and parameters
     AMIX     =   0.40;   BMIX     =  1.00
     AMIX_MAG =   1.60;   BMIX_MAG =  1.00
     AMIN     =   0.10
     WC   =   100.;   INIMIX=   1;  MIXPRE=   1;  MAXMIX= -45

 Intra band minimization:
   WEIMIN = 0.0000     energy-eigenvalue tresh-hold
   EBREAK =  0.45E-08  absolut break condition
   DEPER  =   0.30     relativ break condition  

   TIME   =   0.40     timestep for ELM

  volume/ion in A,a.u.               =      24.96       168.43
  Fermi-wavevector in a.u.,A,eV,Ry     =   1.264438  2.389442 21.753059  1.598805
  Thomas-Fermi vector in A             =   2.397744
 
 Write flags
   LWAVE        =      F    write WAVECAR
   LDOWNSAMPLE  =      F    k-point downsampling of WAVECAR
   LCHARG       =      T    write CHGCAR
   LVTOT        =      F    write LOCPOT, total local potential
   LVHAR        =      F    write LOCPOT, Hartree potential only
   LELF         =      F    write electronic localiz. function (ELF)
   LORBIT       =     11    0 simple, 1 ext, 2 COOP (PROOUT), +10 PAW based schemes


 Dipole corrections
   LMONO  =      F    monopole corrections only (constant potential shift)
   LDIPOL =      F    correct potential (dipole corrections)
   IDIPOL =      0    1-x, 2-y, 3-z, 4-all directions 
   EPSILON=  1.0000000 bulk dielectric constant

 Exchange correlation treatment:
   GGA     =    --    GGA type
   LEXCH   =     8    internal setting for exchange type
   VOSKOWN=      0    Vosko Wilk Nusair interpolation
   LHFCALC =     F    Hartree Fock is set to
   LHFONE  =     F    Hartree Fock one center treatment
   AEXX    =    0.0000 exact exchange contribution

 Linear response parameters
   LEPSILON=     F    determine dielectric tensor
   LRPA    =     F    only Hartree local field effects (RPA)
   LNABLA  =     F    use nabla operator in PAW spheres
   LVEL    =     F    velocity operator in full k-point grid
   LINTERFAST=   F  fast interpolation
   KINTER  =     0    interpolate to denser k-point grid
   CSHIFT  =0.1000    complex shift for real part using Kramers Kronig
   OMEGAMAX=  -1.0    maximum frequency
   DEG_THRESHOLD= 0.2000000E-02 threshold for treating states as degnerate
   RTIME   =   -0.100 relaxation time in fs
  (WPLASMAI=    0.000 imaginary part of plasma frequency in eV, 0.658/RTIME)
   DFIELD  = 0.0000000 0.0000000 0.0000000 field for delta impulse in time
 
 Orbital magnetization related:
   ORBITALMAG=     F  switch on orbital magnetization
   LCHIMAG   =     F  perturbation theory with respect to B field
   DQ        =  0.001000  dq finite difference perturbation B field
   LLRAUG    =     F  two centre corrections for induced B field



--------------------------------------------------------------------------------------------------------


 Static calculation
 charge density and potential will be updated during run
 spin polarized calculation
 Variant of blocked Davidson
 Davidson routine will perform the subspace rotation
 perform sub-space diagonalisation
    after iterative eigenvector-optimisation
 modified Broyden-mixing scheme, WC =      100.0
 initial mixing is a Kerker type mixing with AMIX =  0.4000 and BMIX =      1.0000
 Hartree-type preconditioning will be used
 using additional bands           10
 real space projection scheme for non local part
 use partial core corrections
 calculate Harris-corrections to forces 
   (improved forces if not selfconsistent)
 use gradient corrections 
 use of overlap-Matrix (Vanderbilt PP)
 Fermi weights with tetrahedron method with Bloechl corrections


--------------------------------------------------------------------------------------------------------


  energy-cutoff  :      520.00
  volume of cell :      199.67
      direct lattice vectors                 reciprocal lattice vectors
     0.000000000  4.772297000  3.374523000    -0.060489769  0.174618926  0.049389683
    -4.132930000 -2.386148000  3.374523000    -0.181469329 -0.034923781  0.049389693
     2.066465000 -1.193074000  6.749047000     0.120979531 -0.069847562  0.098779387

  length of vectors
     5.844845946  5.844845433  7.158445262     0.191285447  0.191285466  0.171090900


 
 k-points in units of 2pi/SCALE and weight: pymatgen v2019.10.16 with grid density =
   0.00000000  0.00000000  0.00000000       0.003
  -0.00864140  0.02494556  0.00705567       0.007
  -0.01728279  0.04989112  0.01411134       0.007
  -0.02592419  0.07483668  0.02116701       0.007
  -0.02592419 -0.00498911  0.00705567       0.007
  -0.03456559  0.01995645  0.01411134       0.007
  -0.04320698  0.04490201  0.02116701       0.007
  -0.05184838  0.06984757  0.02822268       0.007
  -0.00000000 -0.07982579 -0.01411134       0.007
  -0.00864140 -0.05488023 -0.00705567       0.007
  -0.01728279 -0.02993467  0.00000000       0.007
  -0.05184838 -0.00997822  0.01411134       0.007
  -0.06048978  0.01496734  0.02116701       0.007
  -0.06913117  0.03991290  0.02822268       0.007
  -0.07777257  0.06485846  0.03527835       0.007
  -0.02592419 -0.08481491 -0.00705567       0.007
  -0.03456559 -0.05986935  0.00000000       0.007
  -0.04320698 -0.03492378  0.00705567       0.007
  -0.07777257 -0.01496733  0.02116701       0.007
  -0.08641397  0.00997823  0.02822268       0.007
  -0.09505536  0.03492379  0.03527835       0.007
  -0.10369676  0.05986935  0.04233402       0.007
  -0.05184838 -0.08980402  0.00000000       0.007
  -0.06048978 -0.06485846  0.00705567       0.007
  -0.06913117 -0.03991290  0.01411134       0.007
   0.02016326 -0.01164126  0.01646323       0.007
   0.01152186  0.01330430  0.02351890       0.007
   0.00288046  0.03824986  0.03057457       0.007
  -0.00576093  0.06319542  0.03763024       0.007
   0.04608744 -0.08647794 -0.00470378       0.007
   0.03744605 -0.06153238  0.00235189       0.007
   0.02880465 -0.03658682  0.00940756       0.007
  -0.00576093 -0.01663037  0.02351890       0.007
  -0.01440233  0.00831519  0.03057457       0.007
  -0.02304373  0.03326075  0.03763024       0.007
  -0.03168512  0.05820631  0.04468591       0.007
   0.02016325 -0.09146705  0.00235189       0.007
   0.01152186 -0.06652149  0.00940756       0.007
   0.00288046 -0.04157593  0.01646323       0.007
  -0.03168512 -0.02161948  0.03057457       0.007
  -0.04032652  0.00332608  0.03763024       0.007
  -0.04896792  0.02827164  0.04468591       0.007
  -0.05760931  0.05321720  0.05174158       0.007
  -0.00576094 -0.09645617  0.00940757       0.007
  -0.01440233 -0.07151061  0.01646323       0.007
  -0.02304373 -0.04656504  0.02351890       0.007
  -0.05760931 -0.02660860  0.03763024       0.007
  -0.06625071 -0.00166303  0.04468591       0.007
  -0.07489211  0.02328253  0.05174158       0.007
  -0.08353350  0.04822809  0.05879725       0.007
  -0.03168513 -0.10144528  0.01646324       0.007
  -0.04032652 -0.07649972  0.02351890       0.007
  -0.04896792 -0.05155416  0.03057457       0.007
   0.09793582  0.00332607 -0.00470378       0.007
   0.08929443  0.02827164  0.00235189       0.007
   0.08065303  0.05321720  0.00940756       0.007
   0.07201164  0.07816276  0.01646323       0.007
   0.12386001 -0.07151061 -0.02587079       0.007
   0.11521862 -0.04656505 -0.01881512       0.007
   0.10657722 -0.02161949 -0.01175945       0.007
   0.07201163 -0.00166304  0.00235189       0.007
   0.06337024  0.02328252  0.00940756       0.007
   0.05472884  0.04822808  0.01646323       0.007
   0.04608745  0.07317365  0.02351890       0.007
   0.09793582 -0.07649972 -0.01881512       0.007
   0.08929443 -0.05155416 -0.01175945       0.007
   0.08065303 -0.02660860 -0.00470378       0.007
   0.04608745 -0.00665215  0.00940756       0.007
   0.03744605  0.01829341  0.01646323       0.007
   0.02880465  0.04323897  0.02351890       0.007
   0.02016326  0.06818453  0.03057457       0.007
   0.07201163 -0.08148883 -0.01175945       0.007
   0.06337024 -0.05654327 -0.00470378       0.007
   0.05472884 -0.03159771  0.00235189       0.007
   0.04032651 -0.02328252  0.03292646       0.007
   0.03168511  0.00166304  0.03998213       0.007
   0.02304372  0.02660860  0.04703780       0.007
   0.01440232  0.05155416  0.05409347       0.007
   0.06625070 -0.09811920  0.01175946       0.007
   0.05760930 -0.07317364  0.01881512       0.007
   0.04896791 -0.04822808  0.02587079       0.007
   0.01440232 -0.02827163  0.03998213       0.007
   0.00576092 -0.00332607  0.04703780       0.007
  -0.00288047  0.02161949  0.05409347       0.007
  -0.01152187  0.04656505  0.06114914       0.007
   0.04032651 -0.10310832  0.01881513       0.007
   0.03168511 -0.07816275  0.02587079       0.007
   0.02304372 -0.05321719  0.03292646       0.007
  -0.01152187 -0.03326074  0.04703780       0.007
  -0.02016326 -0.00831518  0.05409347       0.007
  -0.02880466  0.01663038  0.06114914       0.007
  -0.03744606  0.04157594  0.06820481       0.007
   0.01440232 -0.10809743  0.02587080       0.007
   0.00576092 -0.08315187  0.03292647       0.007
  -0.00288047 -0.05820630  0.03998213       0.007
  -0.03744606 -0.03824986  0.05409347       0.007
  -0.04608745 -0.01330429  0.06114914       0.007
  -0.05472885  0.01164127  0.06820481       0.007
  -0.06337025  0.03658683  0.07526048       0.007
  -0.01152187 -0.11308654  0.03292647       0.007
  -0.02016327 -0.08814098  0.03998214       0.007
  -0.02880466 -0.06319542  0.04703780       0.007
   0.11809908 -0.00831519  0.01175945       0.007
   0.10945768  0.01663037  0.01881512       0.007
   0.10081629  0.04157594  0.02587079       0.007
   0.09217489  0.06652150  0.03292646       0.007
   0.14402327 -0.08315187 -0.00940756       0.007
   0.13538187 -0.05820631 -0.00235189       0.007
   0.12674048 -0.03326075  0.00470378       0.007
   0.09217489 -0.01330430  0.01881512       0.007
   0.08353349  0.01164126  0.02587079       0.007
   0.07489210  0.03658682  0.03292646       0.007
   0.06625070  0.06153239  0.03998213       0.007
   0.11809908 -0.08814098 -0.00235189       0.007
   0.10945768 -0.06319542  0.00470378       0.007
   0.10081629 -0.03824986  0.01175945       0.007
   0.06625070 -0.01829341  0.02587079       0.007
   0.05760930  0.00665215  0.03292646       0.007
   0.04896791  0.03159771  0.03998213       0.007
   0.04032651  0.05654327  0.04703780       0.007
   0.09217489 -0.09313009  0.00470378       0.007
   0.08353349 -0.06818453  0.01175945       0.007
   0.07489210 -0.04323897  0.01881512       0.007
   0.06048977 -0.03492378  0.04938969       0.003
   0.05184837 -0.00997822  0.05644536       0.007
   0.04320697  0.01496734  0.06350103       0.007
   0.03456558  0.03991290  0.07055670       0.007
   0.03456558 -0.03991289  0.05644536       0.007
   0.02592418 -0.01496733  0.06350103       0.007
   0.01728278  0.00997823  0.07055670       0.007
   0.00864139  0.03492379  0.07761237       0.007
   0.06048976 -0.11474958  0.03527836       0.007
   0.05184837 -0.08980401  0.04233403       0.007
   0.04320697 -0.06485845  0.04938969       0.007
   0.00864139 -0.04490200  0.06350103       0.007
  -0.00000001 -0.01995644  0.07055670       0.007
  -0.00864141  0.00498912  0.07761237       0.007
  -0.01728280  0.02993468  0.08466804       0.007
   0.03456557 -0.11973869  0.04233403       0.007
   0.02592418 -0.09479313  0.04938970       0.007
   0.01728278 -0.06984757  0.05644537       0.007
  -0.01728280 -0.04989112  0.07055670       0.007
  -0.02592420 -0.02494556  0.07761237       0.007
  -0.03456560  0.00000001  0.08466804       0.007
  -0.04320699  0.02494557  0.09172371       0.007
   0.00864138 -0.12472780  0.04938970       0.007
  -0.00000001 -0.09978224  0.05644537       0.007
  -0.00864141 -0.07483668  0.06350104       0.007
 
 k-points in reciprocal lattice and weights: pymatgen v2019.10.16 with grid density =
   0.00000000  0.00000000  0.00000000       0.003
   0.14285714  0.00000000  0.00000000       0.007
   0.28571429  0.00000000  0.00000000       0.007
   0.42857143  0.00000000  0.00000000       0.007
   0.00000000  0.14285714  0.00000000       0.007
   0.14285714  0.14285714 -0.00000000       0.007
   0.28571429  0.14285714 -0.00000000       0.007
   0.42857143  0.14285714 -0.00000000       0.007
  -0.42857143  0.14285714  0.00000000       0.007
  -0.28571429  0.14285714  0.00000000       0.007
  -0.14285714  0.14285714 -0.00000000       0.007
   0.00000000  0.28571429  0.00000000       0.007
   0.14285714  0.28571429 -0.00000000       0.007
   0.28571429  0.28571429 -0.00000000       0.007
   0.42857143  0.28571429  0.00000000       0.007
  -0.42857143  0.28571429  0.00000000       0.007
  -0.28571429  0.28571429  0.00000000       0.007
  -0.14285714  0.28571429 -0.00000000       0.007
  -0.00000000  0.42857143 -0.00000000       0.007
   0.14285714  0.42857143 -0.00000000       0.007
   0.28571429  0.42857143 -0.00000000       0.007
   0.42857143  0.42857143 -0.00000000       0.007
  -0.42857143  0.42857143 -0.00000000       0.007
  -0.28571429  0.42857143 -0.00000000       0.007
  -0.14285714  0.42857143 -0.00000000       0.007
  -0.00000000 -0.00000000  0.16666667       0.007
   0.14285714  0.00000000  0.16666667       0.007
   0.28571429  0.00000000  0.16666667       0.007
   0.42857143  0.00000000  0.16666667       0.007
  -0.42857143 -0.00000000  0.16666667       0.007
  -0.28571429 -0.00000000  0.16666667       0.007
  -0.14285714 -0.00000000  0.16666667       0.007
   0.00000000  0.14285714  0.16666667       0.007
   0.14285714  0.14285714  0.16666667       0.007
   0.28571429  0.14285714  0.16666667       0.007
   0.42857143  0.14285714  0.16666667       0.007
  -0.42857143  0.14285714  0.16666667       0.007
  -0.28571429  0.14285714  0.16666667       0.007
  -0.14285714  0.14285714  0.16666667       0.007
   0.00000000  0.28571429  0.16666667       0.007
   0.14285714  0.28571429  0.16666667       0.007
   0.28571429  0.28571429  0.16666667       0.007
   0.42857143  0.28571429  0.16666667       0.007
  -0.42857143  0.28571429  0.16666667       0.007
  -0.28571429  0.28571429  0.16666667       0.007
  -0.14285714  0.28571429  0.16666667       0.007
  -0.00000000  0.42857143  0.16666667       0.007
   0.14285714  0.42857143  0.16666667       0.007
   0.28571429  0.42857143  0.16666667       0.007
   0.42857143  0.42857143  0.16666667       0.007
  -0.42857143  0.42857143  0.16666667       0.007
  -0.28571429  0.42857143  0.16666667       0.007
  -0.14285714  0.42857143  0.16666667       0.007
  -0.00000000 -0.42857143  0.16666667       0.007
   0.14285714 -0.42857143  0.16666667       0.007
   0.28571429 -0.42857143  0.16666667       0.007
   0.42857143 -0.42857143  0.16666667       0.007
  -0.42857143 -0.42857143  0.16666667       0.007
  -0.28571429 -0.42857143  0.16666667       0.007
  -0.14285714 -0.42857143  0.16666667       0.007
  -0.00000000 -0.28571429  0.16666667       0.007
   0.14285714 -0.28571429  0.16666667       0.007
   0.28571429 -0.28571429  0.16666667       0.007
   0.42857143 -0.28571429  0.16666667       0.007
  -0.42857143 -0.28571429  0.16666667       0.007
  -0.28571429 -0.28571429  0.16666667       0.007
  -0.14285714 -0.28571429  0.16666667       0.007
  -0.00000000 -0.14285714  0.16666667       0.007
   0.14285714 -0.14285714  0.16666667       0.007
   0.28571429 -0.14285714  0.16666667       0.007
   0.42857143 -0.14285714  0.16666667       0.007
  -0.42857143 -0.14285714  0.16666667       0.007
  -0.28571429 -0.14285714  0.16666667       0.007
  -0.14285714 -0.14285714  0.16666667       0.007
  -0.00000000 -0.00000000  0.33333333       0.007
   0.14285714 -0.00000000  0.33333333       0.007
   0.28571429 -0.00000000  0.33333333       0.007
   0.42857143  0.00000000  0.33333333       0.007
  -0.42857143 -0.00000000  0.33333333       0.007
  -0.28571429 -0.00000000  0.33333333       0.007
  -0.14285714 -0.00000000  0.33333333       0.007
   0.00000000  0.14285714  0.33333333       0.007
   0.14285714  0.14285714  0.33333333       0.007
   0.28571429  0.14285714  0.33333333       0.007
   0.42857143  0.14285714  0.33333333       0.007
  -0.42857143  0.14285714  0.33333333       0.007
  -0.28571429  0.14285714  0.33333333       0.007
  -0.14285714  0.14285714  0.33333333       0.007
  -0.00000000  0.28571429  0.33333333       0.007
   0.14285714  0.28571429  0.33333333       0.007
   0.28571429  0.28571429  0.33333333       0.007
   0.42857143  0.28571429  0.33333333       0.007
  -0.42857143  0.28571429  0.33333333       0.007
  -0.28571429  0.28571429  0.33333333       0.007
  -0.14285714  0.28571429  0.33333333       0.007
   0.00000000  0.42857143  0.33333333       0.007
   0.14285714  0.42857143  0.33333333       0.007
   0.28571429  0.42857143  0.33333333       0.007
   0.42857143  0.42857143  0.33333333       0.007
  -0.42857143  0.42857143  0.33333333       0.007
  -0.28571429  0.42857143  0.33333333       0.007
  -0.14285714  0.42857143  0.33333333       0.007
   0.00000000 -0.42857143  0.33333333       0.007
   0.14285714 -0.42857143  0.33333333       0.007
   0.28571429 -0.42857143  0.33333333       0.007
   0.42857143 -0.42857143  0.33333333       0.007
  -0.42857143 -0.42857143  0.33333333       0.007
  -0.28571429 -0.42857143  0.33333333       0.007
  -0.14285714 -0.42857143  0.33333333       0.007
  -0.00000000 -0.28571429  0.33333333       0.007
   0.14285714 -0.28571429  0.33333333       0.007
   0.28571429 -0.28571429  0.33333333       0.007
   0.42857143 -0.28571429  0.33333333       0.007
  -0.42857143 -0.28571429  0.33333333       0.007
  -0.28571429 -0.28571429  0.33333333       0.007
  -0.14285714 -0.28571429  0.33333333       0.007
  -0.00000000 -0.14285714  0.33333333       0.007
   0.14285714 -0.14285714  0.33333333       0.007
   0.28571429 -0.14285714  0.33333333       0.007
   0.42857143 -0.14285714  0.33333333       0.007
  -0.42857143 -0.14285714  0.33333333       0.007
  -0.28571429 -0.14285714  0.33333333       0.007
  -0.14285714 -0.14285714  0.33333333       0.007
  -0.00000000 -0.00000000  0.50000000       0.003
   0.14285714 -0.00000000  0.50000000       0.007
   0.28571429  0.00000000  0.50000000       0.007
   0.42857143  0.00000000  0.50000000       0.007
  -0.00000000  0.14285714  0.50000000       0.007
   0.14285714  0.14285714  0.50000000       0.007
   0.28571429  0.14285714  0.50000000       0.007
   0.42857143  0.14285714  0.50000000       0.007
  -0.42857143  0.14285714  0.50000000       0.007
  -0.28571429  0.14285714  0.50000000       0.007
  -0.14285714  0.14285714  0.50000000       0.007
  -0.00000000  0.28571429  0.50000000       0.007
   0.14285714  0.28571429  0.50000000       0.007
   0.28571429  0.28571429  0.50000000       0.007
   0.42857143  0.28571429  0.50000000       0.007
  -0.42857143  0.28571429  0.50000000       0.007
  -0.28571429  0.28571429  0.50000000       0.007
  -0.14285714  0.28571429  0.50000000       0.007
  -0.00000000  0.42857143  0.50000000       0.007
   0.14285714  0.42857143  0.50000000       0.007
   0.28571429  0.42857143  0.50000000       0.007
   0.42857143  0.42857143  0.50000000       0.007
  -0.42857143  0.42857143  0.50000000       0.007
  -0.28571429  0.42857143  0.50000000       0.007
  -0.14285714  0.42857143  0.50000000       0.007
 
 position of ions in fractional coordinates (direct lattice) 
   0.50000000  0.50000000  0.00000000
   0.75000000  0.25000000  0.50000000
   0.25000000  0.75000000  0.50000000
   0.00000000  0.00000000  0.00000000
   0.50000000  0.00000000  0.00000000
   0.75000000  0.75000000  0.50000000
   0.00000000  0.50000000  0.00000000
   0.25000000  0.25000000  0.50000000
 
 position of ions in cartesian coordinates  (Angst):
  -2.06646500  1.19307450  3.37452300
   0.00000000  2.38614875  6.74904650
  -2.06646500 -1.19307375  6.74904650
   0.00000000  0.00000000  0.00000000
   0.00000000  2.38614850  1.68726150
  -2.06646500  1.19307475  8.43630800
  -2.06646500 -1.19307400  1.68726150
   0.00000000  0.00000025  5.06178500
 


--------------------------------------------------------------------------------------------------------


 k-point  1 :   0.0000 0.0000 0.0000  plane waves:    5421
 k-point  2 :   0.1429 0.0000 0.0000  plane waves:    5400
 k-point  3 :   0.2857 0.0000 0.0000  plane waves:    5375
 k-point  4 :   0.4286 0.0000 0.0000  plane waves:    5372
 k-point  5 :   0.0000 0.1429 0.0000  plane waves:    5400
 k-point  6 :   0.1429 0.1429-0.0000  plane waves:    5378
 k-point  7 :   0.2857 0.1429-0.0000  plane waves:    5370
 k-point  8 :   0.4286 0.1429-0.0000  plane waves:    5363
 k-point  9 :  -0.4286 0.1429 0.0000  plane waves:    5380
 k-point 10 :  -0.2857 0.1429 0.0000  plane waves:    5365
 k-point 11 :  -0.1429 0.1429-0.0000  plane waves:    5355
 k-point 12 :   0.0000 0.2857 0.0000  plane waves:    5375
 k-point 13 :   0.1429 0.2857-0.0000  plane waves:    5370
 k-point 14 :   0.2857 0.2857-0.0000  plane waves:    5392
 k-point 15 :   0.4286 0.2857 0.0000  plane waves:    5367
 k-point 16 :  -0.4286 0.2857 0.0000  plane waves:    5381
 k-point 17 :  -0.2857 0.2857 0.0000  plane waves:    5387
 k-point 18 :  -0.1429 0.2857-0.0000  plane waves:    5365
 k-point 19 :  -0.0000 0.4286-0.0000  plane waves:    5372
 k-point 20 :   0.1429 0.4286-0.0000  plane waves:    5363
 k-point 21 :   0.2857 0.4286-0.0000  plane waves:    5367
 k-point 22 :   0.4286 0.4286-0.0000  plane waves:    5387
 k-point 23 :  -0.4286 0.4286-0.0000  plane waves:    5384
 k-point 24 :  -0.2857 0.4286-0.0000  plane waves:    5381
 k-point 25 :  -0.1429 0.4286-0.0000  plane waves:    5380
 k-point 26 :  -0.0000-0.0000 0.1667  plane waves:    5378
 k-point 27 :   0.1429 0.0000 0.1667  plane waves:    5397
 k-point 28 :   0.2857 0.0000 0.1667  plane waves:    5373
 k-point 29 :   0.4286 0.0000 0.1667  plane waves:    5372
 k-point 30 :  -0.4286-0.0000 0.1667  plane waves:    5371
 k-point 31 :  -0.2857-0.0000 0.1667  plane waves:    5377
 k-point 32 :  -0.1429-0.0000 0.1667  plane waves:    5361
 k-point 33 :   0.0000 0.1429 0.1667  plane waves:    5397
 k-point 34 :   0.1429 0.1429 0.1667  plane waves:    5362
 k-point 35 :   0.2857 0.1429 0.1667  plane waves:    5376
 k-point 36 :   0.4286 0.1429 0.1667  plane waves:    5375
 k-point 37 :  -0.4286 0.1429 0.1667  plane waves:    5370
 k-point 38 :  -0.2857 0.1429 0.1667  plane waves:    5372
 k-point 39 :  -0.1429 0.1429 0.1667  plane waves:    5369
 k-point 40 :   0.0000 0.2857 0.1667  plane waves:    5373
 k-point 41 :   0.1429 0.2857 0.1667  plane waves:    5376
 k-point 42 :   0.2857 0.2857 0.1667  plane waves:    5379
 k-point 43 :   0.4286 0.2857 0.1667  plane waves:    5386
 k-point 44 :  -0.4286 0.2857 0.1667  plane waves:    5388
 k-point 45 :  -0.2857 0.2857 0.1667  plane waves:    5378
 k-point 46 :  -0.1429 0.2857 0.1667  plane waves:    5366
 k-point 47 :  -0.0000 0.4286 0.1667  plane waves:    5372
 k-point 48 :   0.1429 0.4286 0.1667  plane waves:    5375
 k-point 49 :   0.2857 0.4286 0.1667  plane waves:    5386
 k-point 50 :   0.4286 0.4286 0.1667  plane waves:    5387
 k-point 51 :  -0.4286 0.4286 0.1667  plane waves:    5389
 k-point 52 :  -0.2857 0.4286 0.1667  plane waves:    5388
 k-point 53 :  -0.1429 0.4286 0.1667  plane waves:    5383
 k-point 54 :  -0.0000-0.4286 0.1667  plane waves:    5371
 k-point 55 :   0.1429-0.4286 0.1667  plane waves:    5370
 k-point 56 :   0.2857-0.4286 0.1667  plane waves:    5388
 k-point 57 :   0.4286-0.4286 0.1667  plane waves:    5389
 k-point 58 :  -0.4286-0.4286 0.1667  plane waves:    5397
 k-point 59 :  -0.2857-0.4286 0.1667  plane waves:    5383
 k-point 60 :  -0.1429-0.4286 0.1667  plane waves:    5372
 k-point 61 :  -0.0000-0.2857 0.1667  plane waves:    5377
 k-point 62 :   0.1429-0.2857 0.1667  plane waves:    5372
 k-point 63 :   0.2857-0.2857 0.1667  plane waves:    5378
 k-point 64 :   0.4286-0.2857 0.1667  plane waves:    5388
 k-point 65 :  -0.4286-0.2857 0.1667  plane waves:    5383
 k-point 66 :  -0.2857-0.2857 0.1667  plane waves:    5390
 k-point 67 :  -0.1429-0.2857 0.1667  plane waves:    5369
 k-point 68 :  -0.0000-0.1429 0.1667  plane waves:    5361
 k-point 69 :   0.1429-0.1429 0.1667  plane waves:    5369
 k-point 70 :   0.2857-0.1429 0.1667  plane waves:    5366
 k-point 71 :   0.4286-0.1429 0.1667  plane waves:    5383
 k-point 72 :  -0.4286-0.1429 0.1667  plane waves:    5372
 k-point 73 :  -0.2857-0.1429 0.1667  plane waves:    5369
 k-point 74 :  -0.1429-0.1429 0.1667  plane waves:    5359
 k-point 75 :  -0.0000-0.0000 0.3333  plane waves:    5354
 k-point 76 :   0.1429-0.0000 0.3333  plane waves:    5361
 k-point 77 :   0.2857-0.0000 0.3333  plane waves:    5368
 k-point 78 :   0.4286 0.0000 0.3333  plane waves:    5371
 k-point 79 :  -0.4286-0.0000 0.3333  plane waves:    5365
 k-point 80 :  -0.2857-0.0000 0.3333  plane waves:    5376
 k-point 81 :  -0.1429-0.0000 0.3333  plane waves:    5361
 k-point 82 :   0.0000 0.1429 0.3333  plane waves:    5361
 k-point 83 :   0.1429 0.1429 0.3333  plane waves:    5383
 k-point 84 :   0.2857 0.1429 0.3333  plane waves:    5369
 k-point 85 :   0.4286 0.1429 0.3333  plane waves:    5381
 k-point 86 :  -0.4286 0.1429 0.3333  plane waves:    5373
 k-point 87 :  -0.2857 0.1429 0.3333  plane waves:    5372
 k-point 88 :  -0.1429 0.1429 0.3333  plane waves:    5365
 k-point 89 :  -0.0000 0.2857 0.3333  plane waves:    5368
 k-point 90 :   0.1429 0.2857 0.3333  plane waves:    5369
 k-point 91 :   0.2857 0.2857 0.3333  plane waves:    5390
 k-point 92 :   0.4286 0.2857 0.3333  plane waves:    5385
 k-point 93 :  -0.4286 0.2857 0.3333  plane waves:    5386
 k-point 94 :  -0.2857 0.2857 0.3333  plane waves:    5379
 k-point 95 :  -0.1429 0.2857 0.3333  plane waves:    5374
 k-point 96 :   0.0000 0.4286 0.3333  plane waves:    5371
 k-point 97 :   0.1429 0.4286 0.3333  plane waves:    5381
 k-point 98 :   0.2857 0.4286 0.3333  plane waves:    5385
 k-point 99 :   0.4286 0.4286 0.3333  plane waves:    5385
 k-point ** :  -0.4286 0.4286 0.3333  plane waves:    5386
 k-point ** :  -0.2857 0.4286 0.3333  plane waves:    5384
 k-point ** :  -0.1429 0.4286 0.3333  plane waves:    5375
 k-point ** :   0.0000-0.4286 0.3333  plane waves:    5365
 k-point ** :   0.1429-0.4286 0.3333  plane waves:    5373
 k-point ** :   0.2857-0.4286 0.3333  plane waves:    5386
 k-point ** :   0.4286-0.4286 0.3333  plane waves:    5386
 k-point ** :  -0.4286-0.4286 0.3333  plane waves:    5386
 k-point ** :  -0.2857-0.4286 0.3333  plane waves:    5380
 k-point ** :  -0.1429-0.4286 0.3333  plane waves:    5363
 k-point ** :  -0.0000-0.2857 0.3333  plane waves:    5376
 k-point ** :   0.1429-0.2857 0.3333  plane waves:    5372
 k-point ** :   0.2857-0.2857 0.3333  plane waves:    5379
 k-point ** :   0.4286-0.2857 0.3333  plane waves:    5384
 k-point ** :  -0.4286-0.2857 0.3333  plane waves:    5380
 k-point ** :  -0.2857-0.2857 0.3333  plane waves:    5374
 k-point ** :  -0.1429-0.2857 0.3333  plane waves:    5368
 k-point ** :  -0.0000-0.1429 0.3333  plane waves:    5361
 k-point ** :   0.1429-0.1429 0.3333  plane waves:    5365
 k-point ** :   0.2857-0.1429 0.3333  plane waves:    5374
 k-point ** :   0.4286-0.1429 0.3333  plane waves:    5375
 k-point ** :  -0.4286-0.1429 0.3333  plane waves:    5363
 k-point ** :  -0.2857-0.1429 0.3333  plane waves:    5368
 k-point ** :  -0.1429-0.1429 0.3333  plane waves:    5368
 k-point ** :  -0.0000-0.0000 0.5000  plane waves:    5386
 k-point ** :   0.1429-0.0000 0.5000  plane waves:    5358
 k-point ** :   0.2857 0.0000 0.5000  plane waves:    5362
 k-point ** :   0.4286 0.0000 0.5000  plane waves:    5390
 k-point ** :  -0.0000 0.1429 0.5000  plane waves:    5358
 k-point ** :   0.1429 0.1429 0.5000  plane waves:    5371
 k-point ** :   0.2857 0.1429 0.5000  plane waves:    5383
 k-point ** :   0.4286 0.1429 0.5000  plane waves:    5373
 k-point ** :  -0.4286 0.1429 0.5000  plane waves:    5372
 k-point ** :  -0.2857 0.1429 0.5000  plane waves:    5367
 k-point ** :  -0.1429 0.1429 0.5000  plane waves:    5366
 k-point ** :  -0.0000 0.2857 0.5000  plane waves:    5362
 k-point ** :   0.1429 0.2857 0.5000  plane waves:    5383
 k-point ** :   0.2857 0.2857 0.5000  plane waves:    5365
 k-point ** :   0.4286 0.2857 0.5000  plane waves:    5383
 k-point ** :  -0.4286 0.2857 0.5000  plane waves:    5377
 k-point ** :  -0.2857 0.2857 0.5000  plane waves:    5374
 k-point ** :  -0.1429 0.2857 0.5000  plane waves:    5367
 k-point ** :  -0.0000 0.4286 0.5000  plane waves:    5390
 k-point ** :   0.1429 0.4286 0.5000  plane waves:    5373
 k-point ** :   0.2857 0.4286 0.5000  plane waves:    5383
 k-point ** :   0.4286 0.4286 0.5000  plane waves:    5389
 k-point ** :  -0.4286 0.4286 0.5000  plane waves:    5388
 k-point ** :  -0.2857 0.4286 0.5000  plane waves:    5377
 k-point ** :  -0.1429 0.4286 0.5000  plane waves:    5372

 maximum and minimum number of plane-waves per node :      1381     1307

 maximum number of plane-waves:      5421
 maximum index in each direction: 
   IXMAX=   11   IYMAX=   11   IZMAX=   13
   IXMIN=  -11   IYMIN=  -11   IZMIN=  -13


 real space projection operators:
  total allocation   :      12028.75 KBytes
  max/ min on nodes  :       3016.75       3001.25


 parallel 3D FFT for wavefunctions:
    minimum data exchange during FFTs selected (reduces bandwidth)
 parallel 3D FFT for charge:
    minimum data exchange during FFTs selected (reduces bandwidth)


 total amount of memory used by VASP MPI-rank0   240451. kBytes
=======================================================================

   base      :      30000. kBytes
   nonlr-proj:       5242. kBytes
   fftplans  :       5164. kBytes
   grid      :      12607. kBytes
   one-center:        196. kBytes
   wavefun   :     187242. kBytes
 
     INWAV:  cpu time    0.0000: real time    0.0001
 Broyden mixing: mesh for mixing (old mesh)
   NGX = 21   NGY = 21   NGZ = 27
  (NGX  = 96   NGY  = 96   NGZ  =108)
  gives a total of  11907 points

 initial charge density was supplied:
 charge density of overlapping atoms calculated
 number of electron      92.0000000 magnetization       2.4000000
 keeping initial charge density in first step


--------------------------------------------------------------------------------------------------------


 Maximum index for non-local projection operator         2737
 Maximum index for augmentation-charges         4369 (set IRDMAX)


--------------------------------------------------------------------------------------------------------


 First call to EWALD:  gamma=   0.303
 Maximum number of real-space cells 3x 3x 3
 Maximum number of reciprocal cells 3x 3x 3

    FEWALD:  cpu time    0.0014: real time    0.0014


--------------------------------------- Iteration      1(   1)  ---------------------------------------


    POTLOK:  cpu time    0.1726: real time    0.1836
    SETDIJ:  cpu time    1.4538: real time    1.4582
     EDDAV:  cpu time   52.1334: real time   52.2826
 BZINTS: Fermi energy: 20.989023; 92.000000 electrons
         Band energy: 714.683570;  BLOECHL correction: -1.056003
       DOS:  cpu time    0.1675: real time    0.1681
    --------------------------------------------
      LOOP:  cpu time   53.9272: real time   54.0926

 eigenvalue-minimisations  : 37000
 total energy-change (2. order) : 0.1167384E+04  (-0.3147259E+04)
 number of electron      92.0000000 magnetization       2.4000000
 augmentation part       92.0000000 magnetization       2.4000000

 Free energy of the ion-electron system (eV)
  ---------------------------------------------------
  alpha Z        PSCENC =       598.91384103
  Ewald energy   TEWEN  =     -8437.51597848
  -Hartree energ DENC   =     -3135.89600109
  -exchange      EXHF   =         0.00000000
  -V(xc)+E(xc)   XCENC  =       403.15093198
  PAW double counting   =      9716.51005095   -10278.97619931
  entropy T*S    EENTRO =         0.00000000
  eigenvalues    EBANDS =       714.68356990
  atomic energy  EATOM  =     11586.51360488
  Solvation  Ediel_sol  =         0.00000000
  ---------------------------------------------------
  free energy    TOTEN  =      1167.38381986 eV

  energy without entropy =     1167.38381986  energy(sigma->0) =     1167.38381986


--------------------------------------------------------------------------------------------------------




--------------------------------------- Iteration      1(   2)  ---------------------------------------


     EDDAV:  cpu time   61.6461: real time   61.8138
 BZINTS: Fermi energy: 11.344466; 92.000000 electrons
         Band energy:-149.925951;  BLOECHL correction: -0.170966
       DOS:  cpu time    0.1661: real time    0.1667
    --------------------------------------------
      LOOP:  cpu time   61.8122: real time   61.9805

 eigenvalue-minimisations  : 44528
 total energy-change (2. order) :-0.8646095E+03  (-0.7888821E+03)
 number of electron      92.0000000 magnetization       2.4000000
 augmentation part       92.0000000 magnetization       2.4000000

 Free energy of the ion-electron system (eV)
  ---------------------------------------------------
  alpha Z        PSCENC =       598.91384103
  Ewald energy   TEWEN  =     -8437.51597848
  -Hartree energ DENC   =     -3135.89600109
  -exchange      EXHF   =         0.00000000
  -V(xc)+E(xc)   XCENC  =       403.15093198
  PAW double counting   =      9716.51005095   -10278.97619931
  entropy T*S    EENTRO =         0.00000000
  eigenvalues    EBANDS =      -149.92595128
  atomic energy  EATOM  =     11586.51360488
  Solvation  Ediel_sol  =         0.00000000
  ---------------------------------------------------
  free energy    TOTEN  =       302.77429868 eV

  energy without entropy =      302.77429868  energy(sigma->0) =      302.77429868


--------------------------------------------------------------------------------------------------------




--------------------------------------- Iteration      1(   3)  ---------------------------------------


     EDDAV:  cpu time   69.5782: real time   69.7673
 BZINTS: Fermi energy:  6.597025; 92.000000 electrons
         Band energy:-465.812923;  BLOECHL correction: -0.122110
       DOS:  cpu time    0.1756: real time    0.1760
    --------------------------------------------
      LOOP:  cpu time   69.7538: real time   69.9433

 eigenvalue-minimisations  : 49800
 total energy-change (2. order) :-0.3158870E+03  (-0.3091900E+03)
 number of electron      92.0000000 magnetization       2.4000000
 augmentation part       92.0000000 magnetization       2.4000000

 Free energy of the ion-electron system (eV)
  ---------------------------------------------------
  alpha Z        PSCENC =       598.91384103
  Ewald energy   TEWEN  =     -8437.51597848
  -Hartree energ DENC   =     -3135.89600109
  -exchange      EXHF   =         0.00000000
  -V(xc)+E(xc)   XCENC  =       403.15093198
  PAW double counting   =      9716.51005095   -10278.97619931
  entropy T*S    EENTRO =         0.00000000
  eigenvalues    EBANDS =      -465.81292283
  atomic energy  EATOM  =     11586.51360488
  Solvation  Ediel_sol  =         0.00000000
  ---------------------------------------------------
  free energy    TOTEN  =       -13.11267287 eV

  energy without entropy =      -13.11267287  energy(sigma->0) =      -13.11267287


--------------------------------------------------------------------------------------------------------




--------------------------------------- Iteration      1(   4)  ---------------------------------------


     EDDAV:  cpu time   79.8347: real time   80.0518
 BZINTS: Fermi energy:  5.665896; 92.000000 electrons
         Band energy:-512.248694;  BLOECHL correction: -0.015989
       DOS:  cpu time    0.1796: real time    0.1801
    --------------------------------------------
      LOOP:  cpu time   80.0144: real time   80.2318

 eigenvalue-minimisations  : 58432
 total energy-change (2. order) :-0.4643577E+02  (-0.4544804E+02)
 number of electron      92.0000000 magnetization       2.4000000
 augmentation part       92.0000000 magnetization       2.4000000

 Free energy of the ion-electron system (eV)
  ---------------------------------------------------
  alpha Z        PSCENC =       598.91384103
  Ewald energy   TEWEN  =     -8437.51597848
  -Hartree energ DENC   =     -3135.89600109
  -exchange      EXHF   =         0.00000000
  -V(xc)+E(xc)   XCENC  =       403.15093198
  PAW double counting   =      9716.51005095   -10278.97619931
  entropy T*S    EENTRO =         0.00000000
  eigenvalues    EBANDS =      -512.24869405
  atomic energy  EATOM  =     11586.51360488
  Solvation  Ediel_sol  =         0.00000000
  ---------------------------------------------------
  free energy    TOTEN  =       -59.54844409 eV

  energy without entropy =      -59.54844409  energy(sigma->0) =      -59.54844409


--------------------------------------------------------------------------------------------------------




--------------------------------------- Iteration      1(   5)  ---------------------------------------


     EDDAV:  cpu time   86.8000: real time   87.0273
 BZINTS: Fermi energy:  5.581557; 92.000000 electrons
         Band energy:-516.563981;  BLOECHL correction: -0.001953
       DOS:  cpu time    0.1820: real time    0.1824
    CHARGE:  cpu time    2.8954: real time    2.9041
    MIXING:  cpu time    0.0028: real time    0.0029
    --------------------------------------------
      LOOP:  cpu time   89.8803: real time   90.1167

 eigenvalue-minimisations  : 64888
 total energy-change (2. order) :-0.4315287E+01  (-0.4127238E+01)
 number of electron      91.9999997 magnetization       0.4033757
 augmentation part       15.4405724 magnetization       0.2174901

 Broyden mixing:
  rms(total) = 0.27454E+01    rms(broyden)= 0.27454E+01
  rms(prec ) = 0.40276E+01
  weight for this iteration     100.00

 Free energy of the ion-electron system (eV)
  ---------------------------------------------------
  alpha Z        PSCENC =       598.91384103
  Ewald energy   TEWEN  =     -8437.51597848
  -Hartree energ DENC   =     -3135.89600109
  -exchange      EXHF   =         0.00000000
  -V(xc)+E(xc)   XCENC  =       403.15093198
  PAW double counting   =      9716.51005095   -10278.97619931
  entropy T*S    EENTRO =         0.00000000
  eigenvalues    EBANDS =      -516.56398065
  atomic energy  EATOM  =     11586.51360488
  Solvation  Ediel_sol  =         0.00000000
  ---------------------------------------------------
  free energy    TOTEN  =       -63.86373069 eV

  energy without entropy =      -63.86373069  energy(sigma->0) =      -63.86373069


--------------------------------------------------------------------------------------------------------




--------------------------------------- Iteration      1(   6)  ---------------------------------------


    POTLOK:  cpu time    0.1561: real time    0.1568
    SETDIJ:  cpu time    1.6328: real time    1.6370
     EDDAV:  cpu time   73.4593: real time   73.6500
 BZINTS: Fermi energy:  2.302241; 92.000000 electrons
         Band energy:-739.474171;  BLOECHL correction:  0.000000
       DOS:  cpu time    0.0290: real time    0.0290
    CHARGE:  cpu time    2.9499: real time    2.9574
    MIXING:  cpu time    0.0036: real time    0.0036
    --------------------------------------------
      LOOP:  cpu time   78.2307: real time   78.4338

 eigenvalue-minimisations  : 53032
 total energy-change (2. order) :-0.1276972E+02  (-0.9280261E+01)
 number of electron      91.9999994 magnetization       0.2150543
 augmentation part       19.2063054 magnetization       0.2411908

 Broyden mixing:
  rms(total) = 0.32561E+01    rms(broyden)= 0.32561E+01
  rms(prec ) = 0.35626E+01
  weight for this iteration     100.00

 eigenvalues of (default mixing * dielectric matrix)
  average eigenvalue GAMMA=   0.3805
  0.3805

 Free energy of the ion-electron system (eV)
  ---------------------------------------------------
  alpha Z        PSCENC =       598.91384103
  Ewald energy   TEWEN  =     -8437.51597848
  -Hartree energ DENC   =     -2954.16299881
  -exchange      EXHF   =         0.00000000
  -V(xc)+E(xc)   XCENC  =       390.52710036
  PAW double counting   =      9668.03808110   -10189.47293458
  entropy T*S    EENTRO =         0.00000000
  eigenvalues    EBANDS =      -739.47417100
  atomic energy  EATOM  =     11586.51360488
  Solvation  Ediel_sol  =         0.00000000
  ---------------------------------------------------
  free energy    TOTEN  =       -76.63345549 eV

  energy without entropy =      -76.63345549  energy(sigma->0) =      -76.63345549


--------------------------------------------------------------------------------------------------------




--------------------------------------- Iteration      1(   7)  ---------------------------------------


    POTLOK:  cpu time    0.1790: real time    0.1797
    SETDIJ:  cpu time    1.4207: real time    1.4245
     EDDAV:  cpu time   68.6703: real time   68.8503
 BZINTS: Fermi energy:  2.755239; 92.000000 electrons
         Band energy:-651.444298;  BLOECHL correction:  0.000000
       DOS:  cpu time    0.0284: real time    0.0285
    CHARGE:  cpu time    2.9128: real time    2.9201
    MIXING:  cpu time    0.0034: real time    0.0034
    --------------------------------------------
      LOOP:  cpu time   73.2146: real time   73.4065

 eigenvalue-minimisations  : 48840
 total energy-change (2. order) :-0.2454147E+00  (-0.3069092E+01)
 number of electron      91.9999994 magnetization       0.1292198
 augmentation part       19.0988238 magnetization       0.1526125

 Broyden mixing:
  rms(total) = 0.14370E+01    rms(broyden)= 0.14370E+01
  rms(prec ) = 0.18404E+01
  weight for this iteration     100.00

 eigenvalues of (default mixing * dielectric matrix)
  average eigenvalue GAMMA=   0.6097
  0.6097  0.6097

 Free energy of the ion-electron system (eV)
  ---------------------------------------------------
  alpha Z        PSCENC =       598.91384103
  Ewald energy   TEWEN  =     -8437.51597848
  -Hartree energ DENC   =     -3010.75208781
  -exchange      EXHF   =         0.00000000
  -V(xc)+E(xc)   XCENC  =       396.36429432
  PAW double counting   =      9846.91851962   -10405.87676575
  entropy T*S    EENTRO =         0.00000000
  eigenvalues    EBANDS =      -651.44429801
  atomic energy  EATOM  =     11586.51360488
  Solvation  Ediel_sol  =         0.00000000
  ---------------------------------------------------
  free energy    TOTEN  =       -76.87887020 eV

  energy without entropy =      -76.87887020  energy(sigma->0) =      -76.87887020


--------------------------------------------------------------------------------------------------------




--------------------------------------- Iteration      1(   8)  ---------------------------------------


    POTLOK:  cpu time    0.1777: real time    0.1785
    SETDIJ:  cpu time    1.5725: real time    1.5764
     EDDAV:  cpu time   67.5650: real time   67.7405
 BZINTS: Fermi energy:  3.906449; 92.000000 electrons
         Band energy:-583.128196;  BLOECHL correction:  0.000000
       DOS:  cpu time    0.0282: real time    0.0282
    CHARGE:  cpu time    2.8558: real time    2.8630
    MIXING:  cpu time    0.0035: real time    0.0035
    --------------------------------------------
      LOOP:  cpu time   72.2026: real time   72.3902

 eigenvalue-minimisations  : 48136
 total energy-change (2. order) : 0.2074947E+01  (-0.9554384E+00)
 number of electron      91.9999994 magnetization       0.0360644
 augmentation part       18.4582878 magnetization       0.0517135

 Broyden mixing:
  rms(total) = 0.66311E+00    rms(broyden)= 0.66310E+00
  rms(prec ) = 0.87433E+00
  weight for this iteration     100.00

 eigenvalues of (default mixing * dielectric matrix)
  average eigenvalue GAMMA=   0.7883
  0.7593  0.8029  0.8029

 Free energy of the ion-electron system (eV)
  ---------------------------------------------------
  alpha Z        PSCENC =       598.91384103
  Ewald energy   TEWEN  =     -8437.51597848
  -Hartree energ DENC   =     -3056.18709889
  -exchange      EXHF   =         0.00000000
  -V(xc)+E(xc)   XCENC  =       399.19348791
  PAW double counting   =     10139.73039083   -10722.32397513
  entropy T*S    EENTRO =         0.00000000
  eigenvalues    EBANDS =      -583.12819572
  atomic energy  EATOM  =     11586.51360488
  Solvation  Ediel_sol  =         0.00000000
  ---------------------------------------------------
  free energy    TOTEN  =       -74.80392356 eV

  energy without entropy =      -74.80392356  energy(sigma->0) =      -74.80392356


--------------------------------------------------------------------------------------------------------




--------------------------------------- Iteration      1(   9)  ---------------------------------------


    POTLOK:  cpu time    0.1672: real time    0.1679
    SETDIJ:  cpu time    1.5883: real time    1.5924
     EDDAV:  cpu time   74.4897: real time   74.7031
 BZINTS: Fermi energy:  4.976901; 92.000000 electrons
         Band energy:-533.108270;  BLOECHL correction: -0.001750
       DOS:  cpu time    0.1503: real time    0.1508
    CHARGE:  cpu time    2.9730: real time    2.9806
    MIXING:  cpu time    0.0042: real time    0.0042
    --------------------------------------------
      LOOP:  cpu time   79.3728: real time   79.5991

 eigenvalue-minimisations  : 54200
 total energy-change (2. order) :-0.2702396E+00  (-0.7967001E+00)
 number of electron      91.9999995 magnetization       0.0055912
 augmentation part       16.9391809 magnetization       0.0121664

 Broyden mixing:
  rms(total) = 0.63534E+00    rms(broyden)= 0.63534E+00
  rms(prec ) = 0.92876E+00
  weight for this iteration     100.00

 eigenvalues of (default mixing * dielectric matrix)
  average eigenvalue GAMMA=   0.8105
  1.0906  0.8015  0.8015  0.5483

 Free energy of the ion-electron system (eV)
[...]
  0.000  -0.000   0.000   0.001   0.005  -0.000  -0.000  -0.004
 -0.000  -0.000  -0.012   0.000   0.001   0.009  -0.000  -0.000
  0.000   0.000   0.000   0.000   0.000  -0.000  -0.000  -0.000
 pseudopotential strength for first ion, spin component:           2
 -8.479  -4.181   0.000  -0.000   0.000  -0.000  -0.000  -0.000
 -4.181  -0.257  -0.000   0.000  -0.000   0.000  -0.000   0.000
  0.000  -0.000 -15.623   0.000   0.000   7.406  -0.000  -0.000
 -0.000   0.000   0.000 -15.624  -0.001  -0.000   7.407   0.000
  0.000  -0.000   0.000  -0.001 -15.624  -0.000   0.000   7.406
 -0.000   0.000   7.406  -0.000  -0.000   4.900   0.000   0.000
 -0.000  -0.000  -0.000   7.407   0.000   0.000   4.900  -0.000
 -0.000   0.000  -0.000   0.000   7.406   0.000  -0.000   4.900
  0.000  -0.000   0.000   0.000  -0.000   0.000   0.000  -0.000
  0.000  -0.000  -0.000   0.000   0.000  -0.000   0.000   0.000
 -0.000   0.000   0.000  -0.000   0.000   0.000  -0.000   0.000
 -0.001   0.000   0.000   0.000   0.000   0.000   0.000   0.000
 -0.000   0.000   0.000   0.000  -0.000   0.000   0.000  -0.000
 -0.001   0.000  -0.000  -0.000   0.000   0.000   0.000  -0.000
 -0.001   0.000   0.000  -0.000  -0.000  -0.000   0.000   0.000
  0.000  -0.000  -0.000   0.000  -0.000   0.000   0.000   0.000
  0.001  -0.000  -0.000  -0.000  -0.000   0.000   0.000   0.000
  0.000  -0.000  -0.000  -0.000   0.000   0.000   0.000  -0.000
 -0.000  -0.000   0.000   0.000   0.000  -0.000  -0.001   0.000
 -0.000   0.000   0.000   0.000   0.000  -0.000  -0.000  -0.001
 -0.000   0.000  -0.000  -0.000   0.000   0.001   0.000  -0.000
 -0.000  -0.000   0.000  -0.000  -0.000  -0.000  -0.001   0.000
 -0.000   0.000   0.000   0.000  -0.000  -0.000  -0.000   0.001
 -0.000   0.000   0.000   0.000   0.000  -0.002  -0.000  -0.000
  0.000  -0.000   0.000  -0.000   0.000  -0.000   0.000  -0.000
 -0.000  -0.000   0.000   0.000   0.000  -0.000  -0.001   0.000
 -0.000   0.000  -0.000   0.000   0.000  -0.000  -0.000  -0.002
 -0.000   0.000  -0.000  -0.000   0.000   0.001   0.000  -0.000
 -0.000  -0.000   0.000  -0.000   0.000  -0.000  -0.001   0.000
 -0.000   0.000   0.000   0.000  -0.000  -0.000  -0.000   0.001
 -0.000   0.000   0.000   0.000  -0.000  -0.002  -0.000  -0.000
  0.000  -0.000   0.000  -0.000   0.000  -0.000   0.000  -0.000
 total augmentation occupancy for first ion, spin component:           1
  1.995  -0.025   0.000   0.000   0.000  -0.000   0.000  -0.000   0.000   0.000   0.000  -0.000  -0.000   0.000   0.000  -0.000
 -0.025   0.575   0.000   0.000   0.000   0.000   0.000   0.000  -0.000  -0.000  -0.000   0.000   0.000  -0.000  -0.000  -0.000
  0.000   0.000   2.011   0.000   0.000  -0.015   0.000   0.000  -0.000  -0.000  -0.000  -0.000  -0.000  -0.000   0.000  -0.000
  0.000   0.000   0.000   2.011  -0.000   0.000  -0.015  -0.000  -0.000  -0.000  -0.000  -0.000  -0.000  -0.000  -0.000  -0.000
  0.000   0.000   0.000  -0.000   2.011   0.000  -0.000  -0.015   0.000   0.000  -0.000   0.000   0.000   0.000   0.000  -0.000
 -0.000   0.000  -0.015   0.000   0.000   0.017  -0.000  -0.000   0.000   0.000   0.000   0.000  -0.000   0.000   0.000   0.000
  0.000   0.000   0.000  -0.015  -0.000  -0.000   0.017   0.000   0.000   0.000   0.000   0.000   0.000   0.000   0.000   0.000
 -0.000   0.000   0.000  -0.000  -0.015  -0.000   0.000   0.017   0.000  -0.000   0.000  -0.000  -0.000   0.000  -0.000   0.000
  0.000  -0.000  -0.000  -0.000   0.000   0.000   0.000   0.000   0.175   0.001   0.001  -0.092   0.000   0.045   0.000   0.000
  0.000  -0.000  -0.000  -0.000   0.000   0.000   0.000  -0.000   0.001   0.240  -0.000   0.000  -0.092   0.000   0.065  -0.000
  0.000  -0.000  -0.000  -0.000  -0.000   0.000   0.000   0.000   0.001  -0.000   0.110   0.001  -0.001   0.000  -0.000   0.026
 -0.000   0.000  -0.000  -0.000   0.000   0.000   0.000  -0.000  -0.092   0.000   0.001   0.240   0.001  -0.028  -0.000   0.000
 -0.000   0.000  -0.000  -0.000   0.000  -0.000   0.000  -0.000   0.000  -0.092  -0.001   0.001   0.176   0.000  -0.028  -0.000
  0.000  -0.000  -0.000  -0.000   0.000   0.000   0.000   0.000   0.045   0.000   0.000  -0.028   0.000   0.012   0.000   0.000
  0.000  -0.000   0.000  -0.000   0.000   0.000   0.000  -0.000   0.000   0.065  -0.000  -0.000  -0.028   0.000   0.018  -0.000
 -0.000  -0.000  -0.000  -0.000  -0.000   0.000   0.000   0.000   0.000  -0.000   0.026   0.000  -0.000   0.000  -0.000   0.006
 -0.000   0.000  -0.000  -0.000  -0.000   0.000   0.000  -0.000  -0.028  -0.000   0.000   0.065   0.000  -0.008  -0.000   0.000
 -0.000   0.000  -0.000  -0.000   0.000  -0.000   0.000  -0.000   0.000  -0.028  -0.000   0.000   0.046   0.000  -0.008  -0.000
  0.000  -0.000   0.000  -0.051  -0.000  -0.000   0.056   0.000   0.001   0.000   0.000   0.000   0.002   0.000   0.000   0.000
 -0.000  -0.001   0.000  -0.000  -0.062  -0.000   0.000   0.069   0.000  -0.002   0.001  -0.001  -0.001   0.000  -0.000   0.000
 -0.000  -0.002   0.028  -0.000   0.000  -0.031   0.000  -0.000  -0.000   0.000  -0.001  -0.002  -0.000   0.000   0.000  -0.000
 -0.000  -0.000   0.000  -0.046  -0.000  -0.000   0.050   0.000   0.001   0.001   0.000   0.000   0.002   0.000   0.000   0.000
 -0.000  -0.001   0.000   0.000   0.028  -0.000  -0.000  -0.031  -0.000   0.001  -0.001  -0.001  -0.000   0.000   0.000  -0.000
 -0.000  -0.001  -0.062   0.000   0.000   0.068  -0.000  -0.000   0.002   0.001   0.002   0.001  -0.000   0.000   0.000   0.000
  0.000   0.002   0.000  -0.000   0.000  -0.000   0.000  -0.000  -0.001  -0.000  -0.000   0.001   0.000  -0.000  -0.000  -0.000
 -0.000   0.000  -0.000   0.053   0.000   0.000  -0.055  -0.000  -0.000   0.000  -0.000   0.000  -0.000  -0.000   0.000  -0.000
  0.000   0.000  -0.000   0.000   0.065   0.000  -0.000  -0.067  -0.000   0.000  -0.000   0.000   0.000  -0.000   0.000   0.000
  0.000   0.001  -0.029   0.000  -0.000   0.030  -0.000   0.000  -0.000  -0.000   0.000   0.000  -0.000  -0.000  -0.000   0.000
  0.000  -0.000  -0.000   0.048   0.000   0.000  -0.049  -0.000  -0.000   0.000  -0.000   0.000  -0.000  -0.000   0.000  -0.000
  0.000   0.000  -0.000  -0.000  -0.029   0.000   0.000   0.030   0.000   0.000   0.000   0.000   0.000   0.000   0.000   0.000
  0.000   0.000   0.065  -0.000  -0.000  -0.067   0.000   0.000  -0.000  -0.000  -0.000  -0.000  -0.000  -0.000  -0.000  -0.000
 -0.000  -0.001  -0.000  -0.000  -0.000   0.000  -0.000   0.000   0.000   0.000   0.000  -0.000  -0.000   0.000   0.000   0.000
 total augmentation occupancy for first ion, spin component:           2
  0.042   0.161   0.000   0.000   0.000   0.000   0.000   0.000  -0.000  -0.000   0.000   0.000   0.000  -0.000  -0.000   0.000
  0.161  -0.125   0.000   0.000   0.000  -0.000   0.000   0.000   0.002   0.001  -0.000  -0.002  -0.001   0.000   0.000  -0.000
  0.000   0.000   0.008   0.000   0.000   0.044  -0.000  -0.000   0.000   0.000   0.001   0.000  -0.000   0.000   0.000   0.000
  0.000   0.000   0.000   0.008  -0.000  -0.000   0.044   0.000   0.000   0.000   0.000   0.000   0.001   0.000   0.000   0.000
  0.000   0.000   0.000  -0.000   0.008  -0.000   0.000   0.044   0.000  -0.000   0.000  -0.000  -0.000   0.000  -0.000   0.000
  0.000  -0.000   0.044  -0.000  -0.000  -0.002   0.000   0.000  -0.000  -0.000  -0.000  -0.000   0.000  -0.000  -0.000  -0.000
  0.000   0.000  -0.000   0.044   0.000   0.000  -0.002  -0.000  -0.000  -0.000  -0.000  -0.000  -0.000  -0.000  -0.000  -0.000
  0.000   0.000  -0.000   0.000   0.044   0.000  -0.000  -0.002  -0.000   0.000  -0.000   0.000   0.000  -0.000   0.000  -0.000
 -0.000   0.002   0.000   0.000   0.000  -0.000  -0.000  -0.000  -0.029  -0.002  -0.002   0.013  -0.000  -0.008  -0.000  -0.000
 -0.000   0.001   0.000   0.000  -0.000  -0.000  -0.000   0.000  -0.002  -0.037   0.001   0.001   0.010  -0.000  -0.010   0.000
  0.000  -0.000   0.001   0.000   0.000  -0.000  -0.000  -0.000  -0.002   0.001  -0.022  -0.002   0.001  -0.000   0.000  -0.005
  0.000  -0.002   0.000   0.000  -0.000  -0.000  -0.000   0.000   0.013   0.001  -0.002  -0.038  -0.002   0.004   0.000  -0.000
  0.000  -0.001  -0.000   0.001  -0.000   0.000  -0.000   0.000  -0.000   0.010   0.001  -0.002  -0.030  -0.000   0.003   0.000
 -0.000   0.000   0.000   0.000   0.000  -0.000  -0.000  -0.000  -0.008  -0.000  -0.000   0.004  -0.000  -0.002  -0.000  -0.000
 -0.000   0.000   0.000   0.000  -0.000  -0.000  -0.000   0.000  -0.000  -0.010   0.000   0.000   0.003  -0.000  -0.003   0.000
  0.000  -0.000   0.000   0.000   0.000  -0.000  -0.000  -0.000  -0.000   0.000  -0.005  -0.000   0.000  -0.000   0.000  -0.001
  0.000  -0.001   0.000   0.000  -0.000  -0.000  -0.000   0.000   0.004   0.000  -0.000  -0.010  -0.000   0.001   0.000  -0.000
  0.000  -0.000  -0.000   0.000  -0.000   0.000  -0.000   0.000  -0.000   0.003   0.000  -0.000  -0.008  -0.000   0.001   0.000
 -0.000   0.000  -0.000   0.006   0.000   0.000  -0.012  -0.001  -0.000   0.001  -0.000   0.001  -0.000  -0.000   0.000  -0.000
 -0.000   0.001  -0.000   0.000   0.008   0.001  -0.001  -0.015  -0.000   0.002   0.001   0.002  -0.000  -0.000   0.000   0.000
 -0.000   0.004  -0.003   0.000   0.000   0.006  -0.000   0.000  -0.002  -0.002   0.002   0.002  -0.001  -0.000  -0.000   0.000
  0.000   0.000  -0.000   0.006   0.000   0.000  -0.010  -0.001  -0.001   0.001  -0.000   0.000  -0.001  -0.000   0.000  -0.000
 -0.000   0.002   0.000  -0.000  -0.004  -0.000   0.001   0.006   0.001   0.000   0.001   0.002   0.003   0.000   0.000   0.000
 -0.000   0.002   0.008  -0.000  -0.000  -0.014   0.000   0.001  -0.000  -0.002   0.001   0.000   0.000  -0.000  -0.000   0.000
  0.000  -0.003   0.000   0.000   0.000   0.000  -0.000   0.000   0.003   0.000   0.003  -0.001  -0.002   0.001   0.000   0.001
  0.000   0.000   0.000   0.001  -0.000  -0.000   0.005   0.001  -0.001  -0.002   0.000  -0.001  -0.001  -0.000  -0.000   0.000
  0.000  -0.001   0.000  -0.000   0.001  -0.001   0.001   0.007  -0.000  -0.001  -0.002  -0.002   0.001  -0.000  -0.000  -0.000
  0.000  -0.002  -0.000   0.000  -0.000  -0.003   0.000   0.000   0.002   0.002  -0.001  -0.001   0.002   0.000   0.000  -0.000
 -0.000   0.000   0.000   0.000  -0.000  -0.000   0.004   0.001  -0.001  -0.002   0.000  -0.001  -0.001  -0.000  -0.000   0.000
  0.000  -0.001  -0.000  -0.000  -0.000   0.000  -0.001  -0.003  -0.002  -0.001  -0.000  -0.002  -0.004  -0.000  -0.000  -0.000
  0.000  -0.001   0.001   0.000   0.000   0.006  -0.000  -0.001  -0.002   0.002  -0.004  -0.001   0.000  -0.000   0.000  -0.001
 -0.000   0.002  -0.000  -0.000  -0.000  -0.000   0.000  -0.000  -0.003  -0.000  -0.004  -0.000   0.002  -0.001  -0.000  -0.001


------------------------ aborting loop because EDIFF is reached ----------------------------------------


 


 total charge     
 
# of ion       s       p       d       f       tot
--------------------------------------------------
    1        2.080   5.876   0.493   6.734  15.183
    2        2.080   5.876   0.493   6.734  15.183
    3        2.080   5.876   0.493   6.734  15.183
    4        2.080   5.876   0.493   6.734  15.183
    5        1.317   2.451   0.000   0.000   3.768
    6        1.317   2.451   0.000   0.000   3.768
    7        1.317   2.451   0.000   0.000   3.768
    8        1.317   2.451   0.000   0.000   3.768
--------------------------------------------------
tot         13.589  33.308   1.974  26.936  75.806

 


 magnetization (x)
 
# of ion       s       p       d       f       tot
--------------------------------------------------
    1        0.007   0.012  -0.082  -6.673  -6.735
    2        0.007   0.012  -0.082  -6.673  -6.735
    3       -0.007  -0.012   0.082   6.673   6.735
    4       -0.007  -0.012   0.082   6.673   6.735
    5       -0.000   0.000   0.000   0.000   0.000
    6       -0.000   0.000   0.000   0.000   0.000
    7        0.000  -0.000   0.000   0.000  -0.000
    8        0.000  -0.000   0.000   0.000  -0.000
--------------------------------------------------
tot          0.000  -0.000  -0.000   0.000   0.000

 
    CHARGE:  cpu time    2.8975: real time    2.9059
    FORLOC:  cpu time    0.0091: real time    0.0091
    FORNL :  cpu time   17.2436: real time   17.2884
    STRESS:  cpu time   51.7217: real time   51.8619
    FORCOR:  cpu time    0.1753: real time    0.1759
    FORHAR:  cpu time    0.0233: real time    0.0234
    MIXING:  cpu time    0.0072: real time    0.0072
    OFIELD:  cpu time    0.0001: real time    0.0001

  FORCE on cell =-STRESS in cart. coord.  units (eV):
  Direction    XX          YY          ZZ          XY          YZ          ZX
  --------------------------------------------------------------------------------------
  Alpha Z   598.91384   598.91384   598.91384
  Ewald   -2812.50865 -2812.50873 -2812.50869     0.00023    -0.00006    -0.00032
  Hartree  1024.37031  1024.26455  1024.27930    -0.08870    -0.06024     0.09995
  E(xc)    -452.71827  -452.72150  -452.72020    -0.00284    -0.00216     0.00379
  Local     500.83509   501.00232   501.00634     0.13748     0.08596    -0.13790
  n-local   -61.07631   -61.08829   -61.08298    -0.00710    -0.00828     0.00949
  augment    99.55192    99.54325    99.51764    -0.00707     0.00508    -0.00932
  Kinetic  1103.55911  1103.52782  1103.51192    -0.02710    -0.01251     0.02141
  Fock        0.00000     0.00000     0.00000     0.00000     0.00000     0.00000
  -------------------------------------------------------------------------------------
  Total       0.92704     0.93326     0.91717     0.00490     0.00778    -0.01289
  in kB       7.43854     7.48848     7.35936     0.03931     0.06243    -0.10343
  external pressure =        7.43 kB  Pullay stress =        0.00 kB


 VOLUME and BASIS-vectors are now :
 -----------------------------------------------------------------------------
  energy-cutoff  :      520.00
  volume of cell :      199.67
      direct lattice vectors                 reciprocal lattice vectors
     0.000000000  4.772297000  3.374523000    -0.060489769  0.174618926  0.049389683
    -4.132930000 -2.386148000  3.374523000    -0.181469329 -0.034923781  0.049389693
     2.066465000 -1.193074000  6.749047000     0.120979531 -0.069847562  0.098779387

  length of vectors
     5.844845946  5.844845433  7.158445262     0.191285447  0.191285466  0.171090900


 FORCES acting on ions
    electron-ion (+dipol)            ewald-force                    non-local-force                 convergence-correction
 -----------------------------------------------------------------------------------------------
   0.265E-02 -.750E-02 0.428E-02   -.142E-13 0.142E-13 0.142E-13   0.763E-03 0.578E-02 -.163E-02   -.387E-02 0.216E-02 -.310E-02
   -.265E-02 0.750E-02 -.428E-02   -.141E-13 0.160E-13 0.214E-13   -.763E-03 -.578E-02 0.163E-02   0.387E-02 -.216E-02 0.310E-02
   0.670E-02 0.214E-02 0.336E-02   -.978E-14 0.305E-13 0.269E-13   -.461E-02 -.354E-02 -.160E-02   -.261E-02 0.153E-02 -.213E-02
   -.670E-02 -.214E-02 -.336E-02   -.142E-13 0.355E-13 0.142E-13   0.461E-02 0.354E-02 0.160E-02   0.261E-02 -.153E-02 0.213E-02
   0.397E-03 -.578E-04 0.279E-03   0.135E-13 -.220E-13 -.204E-13   -.413E-04 -.412E-04 -.945E-05   -.258E-03 0.152E-03 -.220E-03
   -.397E-03 0.578E-04 -.279E-03   0.143E-13 -.222E-13 -.205E-13   0.413E-04 0.412E-04 0.945E-05   0.258E-03 -.152E-03 0.220E-03
   -.298E-04 0.202E-03 -.937E-04   0.878E-14 -.234E-13 -.195E-13   0.151E-04 -.694E-04 0.265E-04   0.260E-04 -.225E-04 0.283E-04
   0.298E-04 -.202E-03 0.937E-04   0.155E-13 -.211E-13 -.217E-13   -.151E-04 0.694E-04 -.265E-04   -.260E-04 0.225E-04 -.283E-04
 -----------------------------------------------------------------------------------------------
   0.234E-11 -.600E-11 0.146E-10   -.174E-15 0.760E-14 -.534E-14   -.867E-18 -.420E-18 0.000E+00   0.187E-12 -.238E-12 -.106E-12
 
 
 POSITION                                       TOTAL-FORCE (eV/Angst)
 -----------------------------------------------------------------------------------
     -2.06646      1.19307      3.37452        -0.000466      0.000442     -0.000455
      0.00000      2.38615      6.74905         0.000466     -0.000442      0.000455
     -2.06646     -1.19307      6.74905        -0.000524      0.000122     -0.000372
      0.00000      0.00000      0.00000         0.000524     -0.000122      0.000372
      0.00000      2.38615      1.68726         0.000098      0.000053      0.000050
     -2.06646      1.19307      8.43631        -0.000098     -0.000053     -0.000050
     -2.06646     -1.19307      1.68726         0.000011      0.000110     -0.000039
      0.00000      0.00000      5.06179        -0.000011     -0.000110      0.000039
 -----------------------------------------------------------------------------------
    total drift:                                0.000000     -0.000000      0.000000


--------------------------------------------------------------------------------------------------------



  FREE ENERGIE OF THE ION-ELECTRON SYSTEM (eV)
  ---------------------------------------------------
  free  energy   TOTEN  =       -74.90822419 eV

  energy  without entropy=      -74.90822419  energy(sigma->0) =      -74.90822419
 


--------------------------------------------------------------------------------------------------------


    POTLOK:  cpu time    1.6937: real time    1.6979


--------------------------------------------------------------------------------------------------------


     LOOP+:  cpu time 1877.6450: real time 1882.7727
    4ORBIT:  cpu time    0.0000: real time    0.0000
 


 total charge     
 
# of ion       s       p       d       f       tot
--------------------------------------------------
    1        2.080   5.876   0.493   6.734  15.183
    2        2.080   5.876   0.493   6.734  15.183
    3        2.080   5.876   0.493   6.734  15.183
    4        2.080   5.876   0.493   6.734  15.183
    5        1.317   2.451   0.000   0.000   3.768
    6        1.317   2.451   0.000   0.000   3.768
    7        1.317   2.451   0.000   0.000   3.768
    8        1.317   2.451   0.000   0.000   3.768
--------------------------------------------------
tot         13.589  33.308   1.974  26.936  75.806

 


 magnetization (x)
 
# of ion       s       p       d       f       tot
--------------------------------------------------
    1        0.007   0.012  -0.082  -6.673  -6.735
    2        0.007   0.012  -0.082  -6.673  -6.735
    3       -0.007  -0.012   0.082   6.673   6.735
    4       -0.007  -0.012   0.082   6.673   6.735
    5       -0.000   0.000   0.000   0.000   0.000
    6       -0.000   0.000   0.000   0.000   0.000
    7        0.000  -0.000   0.000   0.000  -0.000
    8        0.000  -0.000   0.000   0.000  -0.000
--------------------------------------------------
tot          0.000  -0.000  -0.000   0.000   0.000

 
 BZINTS: Fermi energy:  4.534916; 92.000000 electrons
         Band energy:-548.680348;  BLOECHL correction: -0.000782

 total amount of memory used by VASP MPI-rank0   240451. kBytes
=======================================================================

   base      :      30000. kBytes
   nonlr-proj:       5242. kBytes
   fftplans  :       5164. kBytes
   grid      :      12607. kBytes
   one-center:        196. kBytes
   wavefun   :     187242. kBytes
 
  
  
 General timing and accounting informations for this job:
 ========================================================
  
                  Total CPU time used (sec):     1898.886
                            User time (sec):     1891.715
                          System time (sec):        7.172
                         Elapsed time (sec):     1904.874
  
                   Maximum memory used (kb):      304600.
                   Average memory used (kb):           0.
  
                          Minor page faults:       175466
                          Major page faults:            0
                 Voluntary context switches:         1472
