       N       E                     dE             d eps       ncg     rms          rms(c)
DAV:   1     0.833236064017E+03    0.83324E+03   -0.23957E+04 10212   0.253E+03
DAV:   2     0.190734696466E+03   -0.64250E+03   -0.48940E+03 10752   0.374E+02
DAV:   3    -0.364754377533E+01   -0.19438E+03   -0.18652E+03  8948   0.211E+02
DAV:   4    -0.271910833787E+02   -0.23544E+02   -0.22287E+02 12544   0.658E+01
DAV:   5    -0.295452433799E+02   -0.23542E+01   -0.22801E+01 15400   0.219E+01    0.224E+01
DAV:   6    -0.441836773379E+02   -0.14638E+02   -0.57288E+01 10716   0.706E+01    0.301E+01
DAV:   7    -0.426020574836E+02    0.15816E+01   -0.89625E+00 11032   0.186E+01    0.107E+01
DAV:   8    -0.410242360492E+02    0.15778E+01   -0.33130E+00 11824   0.140E+01    0.340E+00
DAV:   9    -0.410815789088E+02   -0.57343E-01   -0.16749E+00 11980   0.105E+01    0.387E+00
DAV:  10    -0.410570942142E+02    0.24485E-01   -0.31956E-01 13204   0.383E+00    0.126E+00
DAV:  11    -0.411222880010E+02   -0.65194E-01   -0.55190E-02 15188   0.119E+00    0.629E-01
DAV:  12    -0.411583452694E+02   -0.36057E-01   -0.38178E-02 11856   0.934E-01    0.578E-01
DAV:  13    -0.411594965579E+02   -0.11513E-02   -0.15075E-02 12468   0.732E-01    0.178E-01
DAV:  14    -0.411577670068E+02    0.17296E-02   -0.12135E-02 12932   0.347E-01    0.141E-01
DAV:  15    -0.411573842413E+02    0.38277E-03   -0.13086E-03 13996   0.159E-01    0.121E-01
DAV:  16    -0.411570153232E+02    0.36892E-03   -0.86427E-04 13560   0.210E-01    0.444E-02
DAV:  17    -0.411573657241E+02   -0.35040E-03   -0.18838E-04 13820   0.715E-02    0.965E-03
DAV:  18    -0.411574853125E+02   -0.11959E-03   -0.35344E-05 15024   0.276E-02    0.366E-03
DAV:  19    -0.411574658768E+02    0.19436E-04   -0.60952E-06 13440   0.836E-03    0.187E-03
DAV:  20    -0.411574758318E+02   -0.99551E-05   -0.10970E-06 10788   0.334E-03    0.129E-03
DAV:  21    -0.411574706519E+02    0.51799E-05   -0.11361E-07  7124   0.190E-03    0.908E-04
DAV:  22    -0.411574671121E+02    0.35398E-05   -0.37812E-08  4988   0.165E-03    0.349E-04
DAV:  23    -0.411574663257E+02    0.78647E-06   -0.18305E-08  4868   0.712E-04    0.217E-04
DAV:  24    -0.411574663587E+02   -0.33000E-07   -0.84632E-09  4804   0.769E-04
   1 F= -.41157466E+02 E0= -.41157466E+02  d E =0.000000E+00  mag=    29.7438
