=========================================
SLURM_JOB_ID = 43771860
SLURM_JOB_NODELIST = lnode27
SLURM_GPUS = 
SLURM_CPUS_ON_NODE = 8
SLURM_JOB_PARTITION = lenovo
SLURM_TASK_PID = 2737612
CUDA_VISIBLE_DEVICES = 
==========================================
 running on    8 total cores
 distrk:  each k-point on    8 cores,    1 groups
 distr:  one band on    4 cores,    2 groups
 using from now: INCAR     
 vasp.5.4.4.18Apr17-6-g9f103f2a35 (build Apr 28 2018 00:24:27) complex          
  
 POSCAR found type information on POSCAR  Eu O 
 POSCAR found :  2 types and       2 ions
 scaLAPACK will be used

 ----------------------------------------------------------------------------- 
|                                                                             |
|  ADVICE TO THIS USER RUNNING 'VASP/VAMP'   (HEAR YOUR MASTER'S VOICE ...):  |
|                                                                             |
|      You have a (more or less) 'small supercell' and for smaller cells      |
|      it is recommended  to use the reciprocal-space projection scheme!      |
|      The real space optimization is not  efficient for small cells and it   |
|      is also less accurate ...                                              |
|      Therefore set LREAL=.FALSE. in the  INCAR file                         |
|                                                                             |
 ----------------------------------------------------------------------------- 

 LDA part: xc-table for Pade appr. of Perdew
 POSCAR, INCAR and KPOINTS ok, starting setup
 FFT: planning ...
 WAVECAR not read
 entering main loop
       N       E                     dE             d eps       ncg     rms          rms(c)
DAV:   1     0.145558481266E+03    0.14556E+03   -0.10187E+04109284   0.263E+03
DAV:   2    -0.517772289173E+01   -0.15074E+03   -0.13262E+03 97272   0.299E+02
DAV:   3    -0.199356656515E+02   -0.14758E+02   -0.14173E+02100884   0.990E+01
DAV:   4    -0.206980439183E+02   -0.76238E+00   -0.74243E+00141304   0.201E+01
DAV:   5    -0.207225960233E+02   -0.24552E-01   -0.24429E-01120192   0.280E+00    0.180E+01
DAV:   6    -0.255390572882E+02   -0.48165E+01   -0.98114E+01134392   0.108E+02    0.270E+01
DAV:   7    -0.209490528098E+02    0.45900E+01   -0.18955E+01112832   0.804E+01    0.997E+00
DAV:   8    -0.209441588637E+02    0.48939E-02   -0.12921E+00132288   0.981E+00    0.472E+00
DAV:   9    -0.209088630424E+02    0.35296E-01   -0.16345E+00134248   0.113E+01    0.254E+00
DAV:  10    -0.208595606742E+02    0.49302E-01   -0.23487E-01124084   0.444E+00    0.917E-01
DAV:  11    -0.208571357188E+02    0.24250E-02   -0.13911E-02129064   0.126E+00    0.746E-01
DAV:  12    -0.208576647680E+02   -0.52905E-03   -0.21875E-02131744   0.141E+00    0.377E-01
DAV:  13    -0.208577099618E+02   -0.45194E-04   -0.18178E-03130596   0.311E-01    0.188E-01
DAV:  14    -0.208577540019E+02   -0.44040E-04   -0.17011E-03124172   0.413E-01    0.732E-02
DAV:  15    -0.208577325236E+02    0.21478E-04   -0.10431E-04127492   0.862E-02    0.499E-02
DAV:  16    -0.208577309431E+02    0.15805E-05   -0.17103E-05127032   0.304E-02    0.206E-02
DAV:  17    -0.208577316258E+02   -0.68273E-06   -0.24274E-06109080   0.136E-02
   1 F= -.20857732E+02 E0= -.20857732E+02  d E =0.000000E+00  mag=     6.9861
