=========================================
SLURM_JOB_ID = 29456382
SLURM_JOB_NODELIST = lnode39
SLURM_GPUS = 
SLURM_CPUS_ON_NODE = 8
SLURM_JOB_PARTITION = lenovo
SLURM_TASK_PID = 745634
CUDA_VISIBLE_DEVICES = 
==========================================
 running on    8 total cores
 distrk:  each k-point on    8 cores,    1 groups
 distr:  one band on    8 cores,    1 groups
 using from now: INCAR     
 vasp.5.4.4.18Apr17-6-g9f103f2a35 (build Apr 28 2018 00:24:27) complex          
  
 POSCAR found type information on POSCAR  Mn Bi
 POSCAR found :  2 types and      12 ions
 scaLAPACK will be used

 ----------------------------------------------------------------------------- 
|                                                                             |
|           W    W    AA    RRRRR   N    N  II  N    N   GGGG   !!!           |
|           W    W   A  A   R    R  NN   N  II  NN   N  G    G  !!!           |
|           W    W  A    A  R    R  N N  N  II  N N  N  G       !!!           |
|           W WW W  AAAAAA  RRRRR   N  N N  II  N  N N  G  GGG   !            |
|           WW  WW  A    A  R   R   N   NN  II  N   NN  G    G                |
|           W    W  A    A  R    R  N    N  II  N    N   GGGG   !!!           |
|                                                                             |
|      For optimal performance we recommend to set                            |
|        NCORE= 4 - approx SQRT( number of cores)                             |
|      NCORE specifies how many cores store one orbital (NPAR=cpu/NCORE).     |
|      This setting can  greatly improve the performance of VASP for DFT.     |
|      The default,   NCORE=1            might be grossly inefficient         |
|      on modern multi-core architectures or massively parallel machines.     |
|      Do your own testing !!!!                                               |
|      Unfortunately you need to use the default for GW and RPA calculations. |
|      (for HF NCORE is supported but not extensively tested yet)             |
|                                                                             |
 ----------------------------------------------------------------------------- 

 LDA part: xc-table for Pade appr. of Perdew
 POSCAR, INCAR and KPOINTS ok, starting setup
 FFT: planning ...
 WAVECAR not read
 entering main loop
       N       E                     dE             d eps       ncg     rms          rms(c)
DAV:   1     0.550227719741E+03    0.55023E+03   -0.23725E+04290336   0.140E+03
DAV:   2     0.214496837134E+02   -0.52878E+03   -0.51772E+03290784   0.395E+02
DAV:   3    -0.653188900294E+02   -0.86769E+02   -0.83464E+02479062   0.149E+02
DAV:   4    -0.746015732510E+02   -0.92827E+01   -0.90741E+01508855   0.614E+01
DAV:   5    -0.752259788908E+02   -0.62441E+00   -0.61635E+00480184   0.160E+01    0.236E+01
DAV:   6    -0.856233828624E+02   -0.10397E+02   -0.27504E+02527168   0.157E+02    0.572E+01
DAV:   7    -0.683914196413E+02    0.17232E+02   -0.11888E+02505737   0.870E+01    0.132E+01
DAV:   8    -0.694743852741E+02   -0.10830E+01   -0.29524E+01548840   0.619E+01    0.133E+01
DAV:   9    -0.687958410745E+02    0.67854E+00   -0.11492E+01546181   0.363E+01    0.512E+00
DAV:  10    -0.688653100860E+02   -0.69469E-01   -0.18916E+00509256   0.150E+01    0.369E+00
DAV:  11    -0.688128432427E+02    0.52467E-01   -0.75998E-01525592   0.119E+01    0.230E+00
DAV:  12    -0.688230221912E+02   -0.10179E-01   -0.21767E-01523903   0.560E+00    0.147E+00
DAV:  13    -0.688364598179E+02   -0.13438E-01   -0.71323E-02499280   0.272E+00    0.107E+00
DAV:  14    -0.688377963533E+02   -0.13365E-02   -0.28572E-02519288   0.262E+00    0.522E-01
DAV:  15    -0.688382467186E+02   -0.45037E-03   -0.14617E-02511440   0.165E+00    0.240E-01
DAV:  16    -0.688386338755E+02   -0.38716E-03   -0.50968E-03499277   0.867E-01    0.181E-01
DAV:  17    -0.688386454409E+02   -0.11565E-04   -0.15529E-03497168   0.671E-01    0.109E-01
DAV:  18    -0.688386425406E+02    0.29003E-05   -0.61766E-04501319   0.341E-01    0.529E-02
DAV:  19    -0.688386556435E+02   -0.13103E-04   -0.23070E-04544408   0.208E-01    0.376E-02
DAV:  20    -0.688386670192E+02   -0.11376E-04   -0.65502E-05503450   0.123E-01    0.170E-02
DAV:  21    -0.688386750492E+02   -0.80300E-05   -0.25927E-05509664   0.656E-02    0.101E-02
DAV:  22    -0.688386807340E+02   -0.56848E-05   -0.13297E-05424168   0.374E-02    0.724E-03
DAV:  23    -0.688386812830E+02   -0.54895E-06   -0.29989E-06262960   0.265E-02
   1 F= -.68838681E+02 E0= -.68838362E+02  d E =-.958322E-03  mag=    -0.0900
