 vasp.5.4.4.18Apr17-6-g9f103f2a35 (build Apr 28 2018 00:24:27) complex          
  
 executed on             LinuxIFC date 2021.09.07  01:12:08
 running on   24 total cores
 distrk:  each k-point on   24 cores,    1 groups
 distr:  one band on NCORES_PER_BAND=   4 cores,    6 groups


--------------------------------------------------------------------------------------------------------


 INCAR:
 POTCAR:    PAW_PBE Fe_pv 02Aug2007               
 POTCAR:    PAW_PBE Fe_pv 02Aug2007               
   VRHFIN =Fe:  3pd7s1                                                          
   LEXCH  = PE                                                                  
   EATOM  =  2457.4239 eV,  180.6156 Ry                                         
                                                                                
   TITEL  = PAW_PBE Fe_pv 02Aug2007                                             
   LULTRA =        F    use ultrasoft PP ?                                      
   IUNSCR =        1    unscreen: 0-lin 1-nonlin 2-no                           
   RPACOR =    1.750    partial core radius                                     
   POMASS =   55.847; ZVAL   =   14.000    mass and valenz                      
   RCORE  =    2.200    outmost cutoff radius                                   
   RWIGS  =    2.200; RWIGS  =    1.164    wigner-seitz radius (au A)           
   ENMAX  =  293.238; ENMIN  =  219.928 eV                                      
   ICORE  =        3    local potential                                         
   LCOR   =        T    correct aug charges                                     
   LPAW   =        T    paw PP                                                  
   EAUG   =  578.342                                                            
   DEXC   =    0.000                                                            
   RMAX   =    2.249    core radius for proj-oper                               
   RAUG   =    1.300    factor for augmentation sphere                          
   RDEP   =    2.296    radius for radial grids                                 
   RDEPT  =    1.766    core radius for aug-charge                              
                                                                                
   Atomic configuration                                                         
    8 entries                                                                   
     n  l   j            E        occ.                                          
     1  0  0.50     -6993.8440   2.0000                                         
     2  0  0.50      -814.6047   2.0000                                         
     2  1  1.50      -693.3689   6.0000                                         
     3  0  0.50       -89.4732   2.0000                                         
     3  1  1.50       -55.6373   6.0000                                         
     3  2  2.50        -3.8151   7.0000                                         
     4  0  0.50        -4.2551   1.0000                                         
     4  3  2.50        -1.3606   0.0000                                         
   Description                                                                  
     l       E           TYP  RCUT    TYP  RCUT                                 
     1    -55.6372668     23  2.000                                             
     1     -5.4423304     23  2.000                                             
     2     -3.8151096     23  2.200                                             
     2     -5.1756922     23  2.200                                             
     0     -4.2550951     23  2.200                                             
     0     27.2116520     23  2.200                                             
     3     -1.3605826     23  2.200                                             
  local pseudopotential read in
  partial core-charges read in
  partial kinetic energy density read in
  atomic valenz-charges read in
  non local Contribution for L=           1  read in
    real space projection operators read in
  non local Contribution for L=           1  read in
    real space projection operators read in
  non local Contribution for L=           2  read in
    real space projection operators read in
  non local Contribution for L=           2  read in
    real space projection operators read in
  non local Contribution for L=           0  read in
    real space projection operators read in
  non local Contribution for L=           0  read in
    real space projection operators read in
    PAW grid and wavefunctions read in
 
   number of l-projection  operators is LMAX  =           6
   number of lm-projection operators is LMMAX =          18
 

 ----------------------------------------------------------------------------- 
|                                                                             |
|  ADVICE TO THIS USER RUNNING 'VASP/VAMP'   (HEAR YOUR MASTER'S VOICE ...):  |
|                                                                             |
|      You have a (more or less) 'small supercell' and for smaller cells      |
|      it is recommended  to use the reciprocal-space projection scheme!      |
|      The real space optimization is not  efficient for small cells and it   |
|      is also less accurate ...                                              |
|      Therefore set LREAL=.FALSE. in the  INCAR file                         |
|                                                                             |
 ----------------------------------------------------------------------------- 

 Optimization of the real space projectors (new method)

 maximal supplied QI-value         = 17.01
 optimisation between [QCUT,QGAM] = [ 15.48, 30.95] = [ 67.08,268.30] Ry 
 Optimized for a Real-space Cutoff    1.26 Angstroem

   l    n(q)    QCUT    max X(q) W(low)/X(q) W(high)/X(q)  e(spline) 
   1     11    15.477     4.267    0.90E-04    0.14E-03    0.59E-06
   1     11    15.477     5.750    0.14E-03    0.21E-03    0.81E-06
   2     11    15.477    53.656    0.97E-04    0.12E-03    0.26E-06
   2     11    15.477    49.521    0.10E-03    0.12E-03    0.27E-06
   0     12    15.477    31.246    0.35E-04    0.34E-04    0.27E-06
   0     12    15.477    12.201    0.29E-04    0.28E-04    0.22E-06
  PAW_PBE Fe_pv 02Aug2007               :
 energy of atom  1       EATOM=-2457.4239
 kinetic energy error for atom=    0.0010 (will be added to EATOM!!)
 
 
 POSCAR: Fe2                                     
  positions in direct lattice
  No initial velocities read in
 exchange correlation table for  LEXCH =        8
   RHO(1)=    0.500       N(1)  =     2000
   RHO(2)=  100.500       N(2)  =     4000
 


--------------------------------------------------------------------------------------------------------


 ion  position               nearest neighbor table
   1  0.000  0.000  0.000-   2 2.46   2 2.46   2 2.46   2 2.46   2 2.46   2 2.46   2 2.46   2 2.46

   2  0.500  0.500  0.500-   1 2.46   1 2.46   1 2.46   1 2.46   1 2.46   1 2.46   1 2.46   1 2.46

 
  LATTYP: Found a simple cubic cell.
 ALAT       =     2.8400520000
  
  Lattice vectors:
  
 A1 = (   2.8400520000,   0.0000000000,   0.0000000000)
 A2 = (   0.0000000000,   2.8400520000,   0.0000000000)
 A3 = (   0.0000000000,   0.0000000000,   2.8400520000)


Analysis of symmetry for initial positions (statically):
=====================================================================
 Subroutine PRICEL returns following result:
 
  LATTYP: Found a body centered cubic cell.
 ALAT       =     2.8400520000
  
  Lattice vectors:
  
 A1 = (   1.4200260000,   1.4200260000,   1.4200260000)
 A2 = (   1.4200260000,  -1.4200260000,  -1.4200260000)
 A3 = (  -1.4200260000,   1.4200260000,  -1.4200260000)
 
   2 primitive cells build up your supercell.
 

 Routine SETGRP: Setting up the symmetry group for a 
 simple cubic supercell.


 Subroutine GETGRP returns: Found 48 space group operations
 (whereof 48 operations were pure point group operations)
 out of a pool of 48 trial point group operations.


The static configuration has the point symmetry O_h .


Analysis of symmetry for dynamics (positions and initial velocities):
=====================================================================
 Subroutine PRICEL returns following result:
 
  LATTYP: Found a body centered cubic cell.
 ALAT       =     2.8400520000
  
  Lattice vectors:
  
 A1 = (   1.4200260000,   1.4200260000,   1.4200260000)
 A2 = (   1.4200260000,  -1.4200260000,  -1.4200260000)
 A3 = (  -1.4200260000,   1.4200260000,  -1.4200260000)
 
   2 primitive cells build up your supercell.
 

 Routine SETGRP: Setting up the symmetry group for a 
 simple cubic supercell.


 Subroutine GETGRP returns: Found 48 space group operations
 (whereof 48 operations were pure point group operations)
 out of a pool of 48 trial point group operations.


The dynamic configuration has the point symmetry O_h .


Analysis of structural, dynamic, and magnetic symmetry:
=====================================================================
 Subroutine PRICEL returns following result:
 
  LATTYP: Found a body centered cubic cell.
 ALAT       =     2.8400520000
  
  Lattice vectors:
  
 A1 = (   1.4200260000,   1.4200260000,   1.4200260000)
 A2 = (   1.4200260000,  -1.4200260000,  -1.4200260000)
 A3 = (  -1.4200260000,   1.4200260000,  -1.4200260000)
 
   2 primitive cells build up your supercell.
 

 Routine SETGRP: Setting up the symmetry group for a 
 simple cubic supercell.


 Subroutine GETGRP returns: Found 48 space group operations
 (whereof 48 operations were pure point group operations)
 out of a pool of 48 trial point group operations.


The magnetic configuration has the point symmetry O_h .


 Subroutine INISYM returns: Found 48 space group operations
 (whereof 48 operations are pure point group operations),
 and found     2 'primitive' translations

 
 
 KPOINTS: Automatic mesh                          

Automatic generation of k-mesh.
 generate k-points for:    7    7    7
Space group operators:
 irot       det(A)        alpha          n_x          n_y          n_z        tau_x        tau_y        tau_z
    1     1.000000     0.000000     1.000000     0.000000     0.000000     0.000000     0.000000     0.000000
    2    -1.000000     0.000000     1.000000     0.000000     0.000000     0.000000     0.000000     0.000000
    3     1.000000   120.000000    -0.577350    -0.577350    -0.577350     0.000000     0.000000     0.000000
    4    -1.000000   120.000000    -0.577350    -0.577350    -0.577350     0.000000     0.000000     0.000000
    5     1.000000   120.000000     0.577350     0.577350     0.577350     0.000000     0.000000     0.000000
    6    -1.000000   120.000000     0.577350     0.577350     0.577350     0.000000     0.000000     0.000000
    7     1.000000    90.000000     0.000000     0.000000    -1.000000     0.000000     0.000000     0.000000
    8    -1.000000    90.000000     0.000000     0.000000    -1.000000     0.000000     0.000000     0.000000
    9     1.000000   180.000000     0.000000     0.707107     0.707107     0.000000     0.000000     0.000000
   10    -1.000000   180.000000     0.000000     0.707107     0.707107     0.000000     0.000000     0.000000
   11     1.000000    90.000000     0.000000     1.000000     0.000000     0.000000     0.000000     0.000000
   12    -1.000000    90.000000     0.000000     1.000000     0.000000     0.000000     0.000000     0.000000
   13     1.000000   180.000000     0.000000     0.000000     1.000000     0.000000     0.000000     0.000000
   14    -1.000000   180.000000     0.000000     0.000000     1.000000     0.000000     0.000000     0.000000
   15     1.000000   120.000000    -0.577350     0.577350     0.577350     0.000000     0.000000     0.000000
   16    -1.000000   120.000000    -0.577350     0.577350     0.577350     0.000000     0.000000     0.000000
   17     1.000000   120.000000    -0.577350     0.577350    -0.577350     0.000000     0.000000     0.000000
   18    -1.000000   120.000000    -0.577350     0.577350    -0.577350     0.000000     0.000000     0.000000
   19     1.000000    90.000000     0.000000     0.000000     1.000000     0.000000     0.000000     0.000000
   20    -1.000000    90.000000     0.000000     0.000000     1.000000     0.000000     0.000000     0.000000
   21     1.000000    90.000000    -1.000000     0.000000     0.000000     0.000000     0.000000     0.000000
   22    -1.000000    90.000000    -1.000000     0.000000     0.000000     0.000000     0.000000     0.000000
   23     1.000000   180.000000     0.707107     0.000000     0.707107     0.000000     0.000000     0.000000
   24    -1.000000   180.000000     0.707107     0.000000     0.707107     0.000000     0.000000     0.000000
   25     1.000000   120.000000     0.577350    -0.577350     0.577350     0.000000     0.000000     0.000000
   26    -1.000000   120.000000     0.577350    -0.577350     0.577350     0.000000     0.000000     0.000000
   27     1.000000   120.000000    -0.577350    -0.577350     0.577350     0.000000     0.000000     0.000000
   28    -1.000000   120.000000    -0.577350    -0.577350     0.577350     0.000000     0.000000     0.000000
   29     1.000000   180.000000     1.000000     0.000000     0.000000     0.000000     0.000000     0.000000
   30    -1.000000   180.000000     1.000000     0.000000     0.000000     0.000000     0.000000     0.000000
   31     1.000000    90.000000     0.000000    -1.000000     0.000000     0.000000     0.000000     0.000000
   32    -1.000000    90.000000     0.000000    -1.000000     0.000000     0.000000     0.000000     0.000000
   33     1.000000   180.000000     0.707107     0.707107     0.000000     0.000000     0.000000     0.000000
   34    -1.000000   180.000000     0.707107     0.707107     0.000000     0.000000     0.000000     0.000000
   35     1.000000    90.000000     1.000000     0.000000     0.000000     0.000000     0.000000     0.000000
   36    -1.000000    90.000000     1.000000     0.000000     0.000000     0.000000     0.000000     0.000000
   37     1.000000   120.000000     0.577350    -0.577350    -0.577350     0.000000     0.000000     0.000000
   38    -1.000000   120.000000     0.577350    -0.577350    -0.577350     0.000000     0.000000     0.000000
   39     1.000000   180.000000     0.000000     1.000000     0.000000     0.000000     0.000000     0.000000
   40    -1.000000   180.000000     0.000000     1.000000     0.000000     0.000000     0.000000     0.000000
   41     1.000000   120.000000     0.577350     0.577350    -0.577350     0.000000     0.000000     0.000000
   42    -1.000000   120.000000     0.577350     0.577350    -0.577350     0.000000     0.000000     0.000000
   43     1.000000   180.000000     0.000000    -0.707107     0.707107     0.000000     0.000000     0.000000
   44    -1.000000   180.000000     0.000000    -0.707107     0.707107     0.000000     0.000000     0.000000
   45     1.000000   180.000000     0.707107    -0.707107     0.000000     0.000000     0.000000     0.000000
   46    -1.000000   180.000000     0.707107    -0.707107     0.000000     0.000000     0.000000     0.000000
   47     1.000000   180.000000     0.707107     0.000000    -0.707107     0.000000     0.000000     0.000000
   48    -1.000000   180.000000     0.707107     0.000000    -0.707107     0.000000     0.000000     0.000000
 
 Subroutine IBZKPT returns following result:
 ===========================================
 
 Found     20 irreducible k-points:
 
 Following reciprocal coordinates:
            Coordinates               Weight
  0.000000  0.000000  0.000000      1.000000
  0.142857  0.000000  0.000000      6.000000
  0.285714  0.000000  0.000000      6.000000
  0.428571  0.000000  0.000000      6.000000
  0.142857  0.142857  0.000000     12.000000
  0.285714  0.142857  0.000000     24.000000
  0.428571  0.142857  0.000000     24.000000
  0.285714  0.285714  0.000000     12.000000
  0.428571  0.285714  0.000000     24.000000
  0.428571  0.428571  0.000000     12.000000
  0.142857  0.142857  0.142857      8.000000
  0.285714  0.142857  0.142857     24.000000
  0.428571  0.142857  0.142857     24.000000
  0.285714  0.285714  0.142857     24.000000
  0.428571  0.285714  0.142857     48.000000
  0.428571  0.428571  0.142857     24.000000
  0.285714  0.285714  0.285714      8.000000
  0.428571  0.285714  0.285714     24.000000
  0.428571  0.428571  0.285714     24.000000
  0.428571  0.428571  0.428571      8.000000
 
 Following cartesian coordinates:
            Coordinates               Weight
  0.000000  0.000000  0.000000      1.000000
  0.050301  0.000000  0.000000      6.000000
  0.100602  0.000000  0.000000      6.000000
  0.150903  0.000000  0.000000      6.000000
  0.050301  0.050301  0.000000     12.000000
  0.100602  0.050301  0.000000     24.000000
  0.150903  0.050301  0.000000     24.000000
  0.100602  0.100602  0.000000     12.000000
  0.150903  0.100602  0.000000     24.000000
  0.150903  0.150903  0.000000     12.000000
  0.050301  0.050301  0.050301      8.000000
  0.100602  0.050301  0.050301     24.000000
  0.150903  0.050301  0.050301     24.000000
  0.100602  0.100602  0.050301     24.000000
  0.150903  0.100602  0.050301     48.000000
  0.150903  0.150903  0.050301     24.000000
  0.100602  0.100602  0.100602      8.000000
  0.150903  0.100602  0.100602     24.000000
  0.150903  0.150903  0.100602     24.000000
  0.150903  0.150903  0.150903      8.000000
 
 TETIRR: Found    163 inequivalent tetrahedra from     2058


--------------------------------------------------------------------------------------------------------




 Dimension of arrays:
   k-points           NKPTS =     20   k-points in BZ     NKDIM =     20   number of bands    NBANDS=     24
   number of dos      NEDOS =    301   number of ions     NIONS =      2
   non local maximal  LDIM  =      6   non local SUM 2l+1 LMDIM =     18
   total plane-waves  NPLWV =  21952
   max r-space proj   IRMAX =   8080   max aug-charges    IRDMAX=  28578
   dimension x,y,z NGX =    28 NGY =   28 NGZ =   28
   dimension x,y,z NGXF=    56 NGYF=   56 NGZF=   56
   support grid    NGXF=    56 NGYF=   56 NGZF=   56
   ions per type =               2
   NGX,Y,Z   is equivalent  to a cutoff of  16.39, 16.39, 16.39 a.u.
   NGXF,Y,Z  is equivalent  to a cutoff of  32.78, 32.78, 32.78 a.u.

 SYSTEM =  unknown system                          
 POSCAR =  Fe2                                     

 Startparameter for this run:
   NWRITE =      2    write-flag & timer
   PREC   = accura    normal or accurate (medium, high low for compatibility)
   ISTART =      0    job   : 0-new  1-cont  2-samecut
   ICHARG =      2    charge: 1-file 2-atom 10-const
   ISPIN  =      2    spin polarized calculation?
   LNONCOLLINEAR =      F non collinear calculations
   LSORBIT =      F    spin-orbit coupling
   INIWAV =      1    electr: 0-lowe 1-rand  2-diag
   LASPH  =      F    aspherical Exc in radial PAW
   METAGGA=      F    non-selfconsistent MetaGGA calc.

 Electronic Relaxation 1
   ENCUT  =  920.0 eV  67.62 Ry    8.22 a.u.   7.02  7.02  7.02*2*pi/ulx,y,z
   ENINI  =  920.0     initial cutoff
   ENAUG  =  578.3 eV  augmentation charge cutoff
   NELM   =    100;   NELMIN=  2; NELMDL= -5     # of ELM steps 
   EDIFF  = 0.1E-06   stopping-criterion for ELM
   LREAL  =      T    real-space projection
   NLSPLINE    = F    spline interpolate recip. space projectors
   LCOMPAT=      F    compatible to vasp.4.4
   GGA_COMPAT  = T    GGA compatible to vasp.4.4-vasp.4.6
   LMAXPAW     = -100 max onsite density
   LMAXMIX     =    2 max onsite mixed and CHGCAR
   VOSKOWN=      0    Vosko Wilk Nusair interpolation
   ROPT   =   -0.00025
 Ionic relaxation
   EDIFFG = 0.1E-05   stopping-criterion for IOM
   NSW    =      0    number of steps for IOM
   NBLOCK =      1;   KBLOCK =      1    inner block; outer block 
   IBRION =     -1    ionic relax: 0-MD 1-quasi-New 2-CG
   NFREE  =      0    steps in history (QN), initial steepest desc. (CG)
   ISIF   =      3    stress and relaxation
   IWAVPR =     10    prediction:  0-non 1-charg 2-wave 3-comb
   ISYM   =      2    0-nonsym 1-usesym 2-fastsym
   LCORR  =      T    Harris-Foulkes like correction to forces

   POTIM  = 0.5000    time-step for ionic-motion
   TEIN   =    0.0    initial temperature
   TEBEG  =    0.0;   TEEND  =   0.0 temperature during run
   SMASS  =  -3.00    Nose mass-parameter (am)
   estimated Nose-frequenzy (Omega)   =  0.10E-29 period in steps =****** mass=  -0.184E-27a.u.
   SCALEE = 1.0000    scale energy and forces
   NPACO  =    256;   APACO  = 16.0  distance and # of slots for P.C.
   PSTRESS=    0.0 pullay stress

  Mass of Ions in am
   POMASS =  55.85
  Ionic Valenz
   ZVAL   =  14.00
  Atomic Wigner-Seitz radii
   RWIGS  =  -1.00
  virtual crystal weights 
   VCA    =   1.00
   NELECT =      28.0000    total number of electrons
   NUPDOWN=      -1.0000    fix difference up-down

 DOS related values:
   EMIN   =  10.00;   EMAX   =-10.00  energy-range for DOS
   EFERMI =   0.00
   ISMEAR =    -5;   SIGMA  =   0.05  broadening in eV -4-tet -1-fermi 0-gaus

 Electronic relaxation 2 (details)
   IALGO  =     38    algorithm
   LDIAG  =      T    sub-space diagonalisation (order eigenvalues)
   LSUBROT=      F    optimize rotation matrix (better conditioning)
   TURBO    =      0    0=normal 1=particle mesh
   IRESTART =      0    0=no restart 2=restart with 2 vectors
   NREBOOT  =      0    no. of reboots
   NMIN     =      0    reboot dimension
   EREF     =   0.00    reference energy to select bands
   IMIX   =      4    mixing-type and parameters
     AMIX     =   0.40;   BMIX     =  1.00
     AMIX_MAG =   1.60;   BMIX_MAG =  1.00
     AMIN     =   0.10
     WC   =   100.;   INIMIX=   1;  MIXPRE=   1;  MAXMIX= -45

 Intra band minimization:
   WEIMIN = 0.0000     energy-eigenvalue tresh-hold
   EBREAK =  0.10E-08  absolut break condition
   DEPER  =   0.30     relativ break condition  

   TIME   =   0.40     timestep for ELM

  volume/ion in A,a.u.               =      11.45        77.29
  Fermi-wavevector in a.u.,A,eV,Ry     =   1.750389  3.307755 41.686364  3.063861
  Thomas-Fermi vector in A             =   2.821117
 
 Write flags
   LWAVE        =      F    write WAVECAR
   LDOWNSAMPLE  =      F    k-point downsampling of WAVECAR
   LCHARG       =      F    write CHGCAR
   LVTOT        =      F    write LOCPOT, total local potential
   LVHAR        =      F    write LOCPOT, Hartree potential only
   LELF         =      F    write electronic localiz. function (ELF)
   LORBIT       =     11    0 simple, 1 ext, 2 COOP (PROOUT), +10 PAW based schemes


 Dipole corrections
   LMONO  =      F    monopole corrections only (constant potential shift)
   LDIPOL =      F    correct potential (dipole corrections)
   IDIPOL =      0    1-x, 2-y, 3-z, 4-all directions 
   EPSILON=  1.0000000 bulk dielectric constant

 Exchange correlation treatment:
   GGA     =    --    GGA type
   LEXCH   =     8    internal setting for exchange type
   VOSKOWN=      0    Vosko Wilk Nusair interpolation
   LHFCALC =     F    Hartree Fock is set to
   LHFONE  =     F    Hartree Fock one center treatment
   AEXX    =    0.0000 exact exchange contribution

 Linear response parameters
   LEPSILON=     F    determine dielectric tensor
   LRPA    =     F    only Hartree local field effects (RPA)
   LNABLA  =     F    use nabla operator in PAW spheres
   LVEL    =     F    velocity operator in full k-point grid
   LINTERFAST=   F  fast interpolation
   KINTER  =     0    interpolate to denser k-point grid
   CSHIFT  =0.1000    complex shift for real part using Kramers Kronig
   OMEGAMAX=  -1.0    maximum frequency
   DEG_THRESHOLD= 0.2000000E-02 threshold for treating states as degnerate
   RTIME   =   -0.100 relaxation time in fs
  (WPLASMAI=    0.000 imaginary part of plasma frequency in eV, 0.658/RTIME)
   DFIELD  = 0.0000000 0.0000000 0.0000000 field for delta impulse in time
 
 Orbital magnetization related:
   ORBITALMAG=     F  switch on orbital magnetization
   LCHIMAG   =     F  perturbation theory with respect to B field
   DQ        =  0.001000  dq finite difference perturbation B field
   LLRAUG    =     F  two centre corrections for induced B field



--------------------------------------------------------------------------------------------------------


 Static calculation
 charge density and potential will be updated during run
 spin polarized calculation
 Variant of blocked Davidson
 Davidson routine will perform the subspace rotation
 perform sub-space diagonalisation
    after iterative eigenvector-optimisation
 modified Broyden-mixing scheme, WC =      100.0
 initial mixing is a Kerker type mixing with AMIX =  0.4000 and BMIX =      1.0000
 Hartree-type preconditioning will be used
 using additional bands           10
 real space projection scheme for non local part
 use partial core corrections
 calculate Harris-corrections to forces 
   (improved forces if not selfconsistent)
 use gradient corrections 
 use of overlap-Matrix (Vanderbilt PP)
 Fermi weights with tetrahedron method with Bloechl corrections


--------------------------------------------------------------------------------------------------------


  energy-cutoff  :      920.00
  volume of cell :       22.91
      direct lattice vectors                 reciprocal lattice vectors
     2.840052000  0.000000000  0.000000000     0.352106229  0.000000000  0.000000000
     0.000000000  2.840052000  0.000000000     0.000000000  0.352106229  0.000000000
     0.000000000  0.000000000  2.840052000     0.000000000  0.000000000  0.352106229

  length of vectors
     2.840052000  2.840052000  2.840052000     0.352106229  0.352106229  0.352106229


 
 k-points in units of 2pi/SCALE and weight: Automatic mesh                          
   0.00000000  0.00000000  0.00000000       0.003
   0.05030089  0.00000000  0.00000000       0.017
   0.10060178  0.00000000  0.00000000       0.017
   0.15090267  0.00000000  0.00000000       0.017
   0.05030089  0.05030089  0.00000000       0.035
   0.10060178  0.05030089  0.00000000       0.070
   0.15090267  0.05030089  0.00000000       0.070
   0.10060178  0.10060178  0.00000000       0.035
   0.15090267  0.10060178  0.00000000       0.070
   0.15090267  0.15090267  0.00000000       0.035
   0.05030089  0.05030089  0.05030089       0.023
   0.10060178  0.05030089  0.05030089       0.070
   0.15090267  0.05030089  0.05030089       0.070
   0.10060178  0.10060178  0.05030089       0.070
   0.15090267  0.10060178  0.05030089       0.140
   0.15090267  0.15090267  0.05030089       0.070
   0.10060178  0.10060178  0.10060178       0.023
   0.15090267  0.10060178  0.10060178       0.070
   0.15090267  0.15090267  0.10060178       0.070
   0.15090267  0.15090267  0.15090267       0.023
 
 k-points in reciprocal lattice and weights: Automatic mesh                          
   0.00000000  0.00000000  0.00000000       0.003
   0.14285714  0.00000000  0.00000000       0.017
   0.28571429  0.00000000  0.00000000       0.017
   0.42857143  0.00000000  0.00000000       0.017
   0.14285714  0.14285714  0.00000000       0.035
   0.28571429  0.14285714  0.00000000       0.070
   0.42857143  0.14285714  0.00000000       0.070
   0.28571429  0.28571429  0.00000000       0.035
   0.42857143  0.28571429  0.00000000       0.070
   0.42857143  0.42857143  0.00000000       0.035
   0.14285714  0.14285714  0.14285714       0.023
   0.28571429  0.14285714  0.14285714       0.070
   0.42857143  0.14285714  0.14285714       0.070
   0.28571429  0.28571429  0.14285714       0.070
   0.42857143  0.28571429  0.14285714       0.140
   0.42857143  0.42857143  0.14285714       0.070
   0.28571429  0.28571429  0.28571429       0.023
   0.42857143  0.28571429  0.28571429       0.070
   0.42857143  0.42857143  0.28571429       0.070
   0.42857143  0.42857143  0.42857143       0.023
 
 position of ions in fractional coordinates (direct lattice) 
   0.00000000  0.00000000  0.00000000
   0.50000000  0.50000000  0.50000000
 
 position of ions in cartesian coordinates  (Angst):
   0.00000000  0.00000000  0.00000000
   1.42002600  1.42002600  1.42002600
 


--------------------------------------------------------------------------------------------------------


 k-point  1 :   0.0000 0.0000 0.0000  plane waves:    1419
 k-point  2 :   0.1429 0.0000 0.0000  plane waves:    1430
 k-point  3 :   0.2857 0.0000 0.0000  plane waves:    1434
 k-point  4 :   0.4286 0.0000 0.0000  plane waves:    1450
 k-point  5 :   0.1429 0.1429 0.0000  plane waves:    1436
 k-point  6 :   0.2857 0.1429 0.0000  plane waves:    1445
 k-point  7 :   0.4286 0.1429 0.0000  plane waves:    1455
 k-point  8 :   0.2857 0.2857 0.0000  plane waves:    1454
 k-point  9 :   0.4286 0.2857 0.0000  plane waves:    1454
 k-point 10 :   0.4286 0.4286 0.0000  plane waves:    1452
 k-point 11 :   0.1429 0.1429 0.1429  plane waves:    1445
 k-point 12 :   0.2857 0.1429 0.1429  plane waves:    1449
 k-point 13 :   0.4286 0.1429 0.1429  plane waves:    1449
 k-point 14 :   0.2857 0.2857 0.1429  plane waves:    1457
 k-point 15 :   0.4286 0.2857 0.1429  plane waves:    1455
 k-point 16 :   0.4286 0.4286 0.1429  plane waves:    1452
 k-point 17 :   0.2857 0.2857 0.2857  plane waves:    1451
 k-point 18 :   0.4286 0.2857 0.2857  plane waves:    1461
 k-point 19 :   0.4286 0.4286 0.2857  plane waves:    1457
 k-point 20 :   0.4286 0.4286 0.4286  plane waves:    1448

 maximum and minimum number of plane-waves per node :       375      338

 maximum number of plane-waves:      1461
 maximum index in each direction: 
   IXMAX=    7   IYMAX=    7   IZMAX=    7
   IXMIN=   -7   IYMIN=   -7   IZMIN=   -7


 real space projection operators:
  total allocation   :       2196.28 KBytes
  max/ min on nodes  :        551.81        546.33


 parallel 3D FFT for wavefunctions:
    minimum data exchange during FFTs selected (reduces bandwidth)
 parallel 3D FFT for charge:
    minimum data exchange during FFTs selected (reduces bandwidth)


 total amount of memory used by VASP MPI-rank0    33608. kBytes
=======================================================================

   base      :      30000. kBytes
   nonlr-proj:        945. kBytes
   fftplans  :        478. kBytes
   grid      :       1141. kBytes
   one-center:         31. kBytes
   wavefun   :       1013. kBytes
 
     INWAV:  cpu time    0.0000: real time    0.0001
 Broyden mixing: mesh for mixing (old mesh)
   NGX = 15   NGY = 15   NGZ = 15
  (NGX  = 56   NGY  = 56   NGZ  = 56)
  gives a total of   3375 points

 initial charge density was supplied:
 charge density of overlapping atoms calculated
 number of electron      28.0000000 magnetization      10.0000000
 keeping initial charge density in first step


--------------------------------------------------------------------------------------------------------


 Maximum index for non-local projection operator         1966
 Maximum index for augmentation-charges         1986 (set IRDMAX)


--------------------------------------------------------------------------------------------------------


 First call to EWALD:  gamma=   0.624
 Maximum number of real-space cells 3x 3x 3
 Maximum number of reciprocal cells 3x 3x 3

    FEWALD:  cpu time    0.0012: real time    0.0013


--------------------------------------- Iteration      1(   1)  ---------------------------------------


    POTLOK:  cpu time    0.0151: real time    0.0190
    SETDIJ:  cpu time    0.0070: real time    0.0070
     EDDAV:  cpu time    0.3015: real time    0.3082
 BZINTS: Fermi energy: 22.144537; 28.000000 electrons
         Band energy: -61.372947;  BLOECHL correction: -0.295319
       DOS:  cpu time    0.0122: real time    0.0122
    --------------------------------------------
      LOOP:  cpu time    0.3357: real time    0.3465

 eigenvalue-minimisations  :  1932
 total energy-change (2. order) : 0.2610556E+03  (-0.2442813E+04)
 number of electron      28.0000000 magnetization      10.0000000
 augmentation part       28.0000000 magnetization      10.0000000

 Free energy of the ion-electron system (eV)
  ---------------------------------------------------
  alpha Z        PSCENC =       218.87048721
  Ewald energy   TEWEN  =     -3616.56080017
  -Hartree energ DENC   =     -1162.86386254
  -exchange      EXHF   =         0.00000000
  -V(xc)+E(xc)   XCENC  =       147.54621443
  PAW double counting   =      3997.93860218    -4177.34792201
  entropy T*S    EENTRO =         0.00000000
  eigenvalues    EBANDS =       -61.37294730
  atomic energy  EATOM  =      4914.84579160
  Solvation  Ediel_sol  =         0.00000000
  ---------------------------------------------------
  free energy    TOTEN  =       261.05556340 eV

  energy without entropy =      261.05556340  energy(sigma->0) =      261.05556340


--------------------------------------------------------------------------------------------------------




--------------------------------------- Iteration      1(   2)  ---------------------------------------


     EDDAV:  cpu time    0.2909: real time    0.2953
 BZINTS: Fermi energy: 12.251207; 28.000000 electrons
         Band energy:-330.981011;  BLOECHL correction: -0.112487
       DOS:  cpu time    0.0118: real time    0.0119
    --------------------------------------------
      LOOP:  cpu time    0.3028: real time    0.3072

 eigenvalue-minimisations  :  1944
 total energy-change (2. order) :-0.2696081E+03  (-0.2588060E+03)
 number of electron      28.0000000 magnetization      10.0000000
 augmentation part       28.0000000 magnetization      10.0000000

 Free energy of the ion-electron system (eV)
  ---------------------------------------------------
  alpha Z        PSCENC =       218.87048721
  Ewald energy   TEWEN  =     -3616.56080017
  -Hartree energ DENC   =     -1162.86386254
  -exchange      EXHF   =         0.00000000
  -V(xc)+E(xc)   XCENC  =       147.54621443
  PAW double counting   =      3997.93860218    -4177.34792201
  entropy T*S    EENTRO =         0.00000000
  eigenvalues    EBANDS =      -330.98101148
  atomic energy  EATOM  =      4914.84579160
  Solvation  Ediel_sol  =         0.00000000
  ---------------------------------------------------
  free energy    TOTEN  =        -8.55250078 eV

  energy without entropy =       -8.55250078  energy(sigma->0) =       -8.55250078


--------------------------------------------------------------------------------------------------------




--------------------------------------- Iteration      1(   3)  ---------------------------------------


     EDDAV:  cpu time    0.3215: real time    0.3225
 BZINTS: Fermi energy: 12.059621; 28.000000 electrons
         Band energy:-338.629103;  BLOECHL correction: -0.122380
       DOS:  cpu time    0.0122: real time    0.0122
    --------------------------------------------
      LOOP:  cpu time    0.3336: real time    0.3347

 eigenvalue-minimisations  :  2088
 total energy-change (2. order) :-0.7648092E+01  (-0.7617968E+01)
 number of electron      28.0000000 magnetization      10.0000000
 augmentation part       28.0000000 magnetization      10.0000000

 Free energy of the ion-electron system (eV)
  ---------------------------------------------------
  alpha Z        PSCENC =       218.87048721
  Ewald energy   TEWEN  =     -3616.56080017
  -Hartree energ DENC   =     -1162.86386254
  -exchange      EXHF   =         0.00000000
  -V(xc)+E(xc)   XCENC  =       147.54621443
  PAW double counting   =      3997.93860218    -4177.34792201
  entropy T*S    EENTRO =         0.00000000
  eigenvalues    EBANDS =      -338.62910305
  atomic energy  EATOM  =      4914.84579160
  Solvation  Ediel_sol  =         0.00000000
  ---------------------------------------------------
  free energy    TOTEN  =       -16.20059235 eV

  energy without entropy =      -16.20059235  energy(sigma->0) =      -16.20059235


--------------------------------------------------------------------------------------------------------




--------------------------------------- Iteration      1(   4)  ---------------------------------------


     EDDAV:  cpu time    0.3429: real time    0.3441
 BZINTS: Fermi energy: 12.059044; 28.000000 electrons
         Band energy:-338.696135;  BLOECHL correction: -0.122386
       DOS:  cpu time    0.0115: real time    0.0115
    --------------------------------------------
      LOOP:  cpu time    0.3544: real time    0.3556

 eigenvalue-minimisations  :  2316
 total energy-change (2. order) :-0.6703156E-01  (-0.6702127E-01)
 number of electron      28.0000000 magnetization      10.0000000
 augmentation part       28.0000000 magnetization      10.0000000

 Free energy of the ion-electron system (eV)
  ---------------------------------------------------
  alpha Z        PSCENC =       218.87048721
  Ewald energy   TEWEN  =     -3616.56080017
  -Hartree energ DENC   =     -1162.86386254
  -exchange      EXHF   =         0.00000000
  -V(xc)+E(xc)   XCENC  =       147.54621443
  PAW double counting   =      3997.93860218    -4177.34792201
  entropy T*S    EENTRO =         0.00000000
  eigenvalues    EBANDS =      -338.69613461
  atomic energy  EATOM  =      4914.84579160
  Solvation  Ediel_sol  =         0.00000000
  ---------------------------------------------------
  free energy    TOTEN  =       -16.26762391 eV

  energy without entropy =      -16.26762391  energy(sigma->0) =      -16.26762391


--------------------------------------------------------------------------------------------------------




--------------------------------------- Iteration      1(   5)  ---------------------------------------


     EDDAV:  cpu time    0.3104: real time    0.3112
 BZINTS: Fermi energy: 12.059042; 28.000000 electrons
         Band energy:-338.697349;  BLOECHL correction: -0.122386
       DOS:  cpu time    0.0112: real time    0.0112
    CHARGE:  cpu time    0.0163: real time    0.0163
    MIXING:  cpu time    0.0007: real time    0.0007
    --------------------------------------------
      LOOP:  cpu time    0.3386: real time    0.3395

 eigenvalue-minimisations  :  2088
 total energy-change (2. order) :-0.1214484E-02  (-0.1214505E-02)
 number of electron      27.9999985 magnetization       4.2689056
 augmentation part       15.9038802 magnetization       2.7769179

 Broyden mixing:
  rms(total) = 0.25158E+01    rms(broyden)= 0.25158E+01
  rms(prec ) = 0.39627E+01
  weight for this iteration     100.00

 Free energy of the ion-electron system (eV)
  ---------------------------------------------------
  alpha Z        PSCENC =       218.87048721
  Ewald energy   TEWEN  =     -3616.56080017
  -Hartree energ DENC   =     -1162.86386254
  -exchange      EXHF   =         0.00000000
  -V(xc)+E(xc)   XCENC  =       147.54621443
  PAW double counting   =      3997.93860218    -4177.34792201
  entropy T*S    EENTRO =         0.00000000
  eigenvalues    EBANDS =      -338.69734910
  atomic energy  EATOM  =      4914.84579160
  Solvation  Ediel_sol  =         0.00000000
  ---------------------------------------------------
  free energy    TOTEN  =       -16.26883840 eV

  energy without entropy =      -16.26883840  energy(sigma->0) =      -16.26883840


--------------------------------------------------------------------------------------------------------




--------------------------------------- Iteration      1(   6)  ---------------------------------------


    POTLOK:  cpu time    0.0103: real time    0.0105
    SETDIJ:  cpu time    0.0054: real time    0.0054
     EDDAV:  cpu time    0.2887: real time    0.2896
 BZINTS: Fermi energy:  9.226238; 28.000000 electrons
         Band energy:-409.632237;  BLOECHL correction: -0.063477
       DOS:  cpu time    0.0121: real time    0.0121
    CHARGE:  cpu time    0.0157: real time    0.0157
    MIXING:  cpu time    0.0006: real time    0.0006
    --------------------------------------------
      LOOP:  cpu time    0.3328: real time    0.3339

 eigenvalue-minimisations  :  1944
 total energy-change (2. order) :-0.1840491E+00  (-0.7559242E+00)
 number of electron      27.9999984 magnetization       4.4636463
 augmentation part       17.0428830 magnetization       3.4902954

 Broyden mixing:
  rms(total) = 0.67526E+00    rms(broyden)= 0.67526E+00
  rms(prec ) = 0.82437E+00
  weight for this iteration     100.00

 eigenvalues of (default mixing * dielectric matrix)
  average eigenvalue GAMMA=   0.8413
  0.8413

 Free energy of the ion-electron system (eV)
  ---------------------------------------------------
  alpha Z        PSCENC =       218.87048721
  Ewald energy   TEWEN  =     -3616.56080017
  -Hartree energ DENC   =     -1089.06276481
  -exchange      EXHF   =         0.00000000
  -V(xc)+E(xc)   XCENC  =       140.59971401
  PAW double counting   =      4112.63218096    -4288.14525892
  entropy T*S    EENTRO =         0.00000000
  eigenvalues    EBANDS =      -409.63223733
  atomic energy  EATOM  =      4914.84579160
  Solvation  Ediel_sol  =         0.00000000
  ---------------------------------------------------
  free energy    TOTEN  =       -16.45288745 eV

  energy without entropy =      -16.45288745  energy(sigma->0) =      -16.45288745


--------------------------------------------------------------------------------------------------------




--------------------------------------- Iteration      1(   7)  ---------------------------------------


    POTLOK:  cpu time    0.0102: real time    0.0103
    SETDIJ:  cpu time    0.0052: real time    0.0052
     EDDAV:  cpu time    0.2901: real time    0.2908
 BZINTS: Fermi energy:  9.683185; 28.000000 electrons
         Band energy:-396.247306;  BLOECHL correction: -0.052984
       DOS:  cpu time    0.0113: real time    0.0114
    CHARGE:  cpu time    0.0156: real time    0.0156
    MIXING:  cpu time    0.0004: real time    0.0004
    --------------------------------------------
      LOOP:  cpu time    0.3328: real time    0.3337

 eigenvalue-minimisations  :  1956
 total energy-change (2. order) :-0.5970767E-01  (-0.5460876E-01)
 number of electron      27.9999984 magnetization       4.3744048
 augmentation part       16.7701738 magnetization       3.4667741

 Broyden mixing:
  rms(total) = 0.41956E+00    rms(broyden)= 0.41956E+00
  rms(prec ) = 0.51402E+00
  weight for this iteration     100.00

 eigenvalues of (default mixing * dielectric matrix)
  average eigenvalue GAMMA=   0.7724
  0.9908  0.5539

 Free energy of the ion-electron system (eV)
  ---------------------------------------------------
  alpha Z        PSCENC =       218.87048721
  Ewald energy   TEWEN  =     -3616.56080017
  -Hartree energ DENC   =     -1098.02845676
  -exchange      EXHF   =         0.00000000
  -V(xc)+E(xc)   XCENC  =       141.24030827
  PAW double counting   =      4216.68837847    -4397.32099735
  entropy T*S    EENTRO =         0.00000000
  eigenvalues    EBANDS =      -396.24730640
  atomic energy  EATOM  =      4914.84579160
  Solvation  Ediel_sol  =         0.00000000
  ---------------------------------------------------
  free energy    TOTEN  =       -16.51259512 eV

  energy without entropy =      -16.51259512  energy(sigma->0) =      -16.51259512


--------------------------------------------------------------------------------------------------------




--------------------------------------- Iteration      1(   8)  ---------------------------------------


    POTLOK:  cpu time    0.0103: real time    0.0104
    SETDIJ:  cpu time    0.0052: real time    0.0052
     EDDAV:  cpu time    0.2997: real time    0.3004
 BZINTS: Fermi energy:  9.608599; 28.000000 electrons
         Band energy:-398.460292;  BLOECHL correction: -0.053406
       DOS:  cpu time    0.0114: real time    0.0114
    CHARGE:  cpu time    0.0157: real time    0.0157
    MIXING:  cpu time    0.0004: real time    0.0004
    --------------------------------------------
      LOOP:  cpu time    0.3426: real time    0.3435

 eigenvalue-minimisations  :  2028
 total energy-change (2. order) :-0.1125577E-01  (-0.1460565E-02)
 number of electron      27.9999984 magnetization       4.2999882
 augmentation part       16.8042260 magnetization       3.3909536

 Broyden mixing:
  rms(total) = 0.12965E+00    rms(broyden)= 0.12965E+00
  rms(prec ) = 0.20950E+00
  weight for this iteration     100.00

 eigenvalues of (default mixing * dielectric matrix)
  average eigenvalue GAMMA=   1.0457
  1.6829  0.8626  0.5915

 Free energy of the ion-electron system (eV)
  ---------------------------------------------------
  alpha Z        PSCENC =       218.87048721
  Ewald energy   TEWEN  =     -3616.56080017
  -Hartree energ DENC   =     -1094.13645162
  -exchange      EXHF   =         0.00000000
  -V(xc)+E(xc)   XCENC  =       141.01792100
  PAW double counting   =      4263.44862097    -4445.54912748
  entropy T*S    EENTRO =         0.00000000
  eigenvalues    EBANDS =      -398.46029241
  atomic energy  EATOM  =      4914.84579160
  Solvation  Ediel_sol  =         0.00000000
  ---------------------------------------------------
  free energy    TOTEN  =       -16.52385090 eV

  energy without entropy =      -16.52385090  energy(sigma->0) =      -16.52385090


--------------------------------------------------------------------------------------------------------




--------------------------------------- Iteration      1(   9)  ---------------------------------------


    POTLOK:  cpu time    0.0102: real time    0.0104
    SETDIJ:  cpu time    0.0051: real time    0.0052
     EDDAV:  cpu time    0.3203: real time    0.3212
 BZINTS: Fermi energy:  9.528526; 28.000000 electrons
         Band energy:-400.753511;  BLOECHL correction: -0.054119
       DOS:  cpu time    0.0117: real time    0.0117
    CHARGE:  cpu time    0.0173: real time    0.0173
    MIXING:  cpu time    0.0005: real time    0.0005
    --------------------------------------------
      LOOP:  cpu time    0.3651: real time    0.3662

 eigenvalue-minimisations  :  2100
 total energy-change (2. order) : 0.8444522E-02  (-0.4676939E-03)
 number of electron      27.9999984 magnetization       4.3332228
 augmentation part       16.8395168 magnetization       3.4197319

 Broyden mixing:
  rms(total) = 0.31624E-01    rms(broyden)= 0.31624E-01
  rms(prec ) = 0.44010E-01
  weight for this iteration     100.00

 eigenvalues of (default mixing * dielectric matrix)
  average eigenvalue GAMMA=   1.1907
  2.3520  1.0628  0.7077  0.6403

 Free energy of the ion-electron system (eV)
  ---------------------------------------------------
  alpha Z        PSCENC =       218.87048721
  Ewald energy   TEWEN  =     -3616.56080017
  -Hartree energ DENC   =     -1089.13365315
  -exchange      EXHF   =         0.00000000
  -V(xc)+E(xc)   XCENC  =       140.77126229
  PAW double counting   =      4338.94930211    -4523.50428480
  entropy T*S    EENTRO =         0.00000000
  eigenvalues    EBANDS =      -400.75351146
  atomic energy  EATOM  =      4914.84579160
  Solvation  Ediel_sol  =         0.00000000
  ---------------------------------------------------
  free energy    TOTEN  =       -16.51540637 eV

  energy without entropy =      -16.51540637  energy(sigma->0) =      -16.51540637


--------------------------------------------------------------------------------------------------------




--------------------------------------- Iteration      1(  10)  ---------------------------------------


    POTLOK:  cpu time    0.0104: real time    0.0108
    SETDIJ:  cpu time    0.0053: real time    0.0053
     EDDAV:  cpu time    0.3010: real time    0.3017
 BZINTS: Fermi energy:  9.543782; 28.000000 electrons
         Band energy:-400.212421;  BLOECHL correction: -0.054538
       DOS:  cpu time    0.0114: real time    0.0114
    CHARGE:  cpu time    0.0155: real time    0.0156
    MIXING:  cpu time    0.0005: real time    0.0005
    --------------------------------------------
      LOOP:  cpu time    0.3441: real time    0.3452

 eigenvalue-minimisations  :  2028
 total energy-change (2. order) : 0.1485222E-04  (-0.2211808E-03)
 number of electron      27.9999984 magnetization       4.3371187
 augmentation part       16.8277185 magnetization       3.4209974

 Broyden mixing:
  rms(total) = 0.43725E-02    rms(broyden)= 0.43725E-02
  rms(prec ) = 0.54074E-02
  weight for this iteration     100.00

 eigenvalues of (default mixing * dielectric matrix)
  average eigenvalue GAMMA=   1.1280
  2.4232  1.0964  0.7865  0.6981  0.6359

 Free energy of the ion-electron system (eV)
  ---------------------------------------------------
  alpha Z        PSCENC =       218.87048721
  Ewald energy   TEWEN  =     -3616.56080017
  -Hartree energ DENC   =     -1088.73132972
  -exchange      EXHF   =         0.00000000
  -V(xc)+E(xc)   XCENC  =       140.77713956
  PAW double counting   =      4366.88211163    -4552.38637108
  entropy T*S    EENTRO =         0.00000000
  eigenvalues    EBANDS =      -400.21242054
  atomic energy  EATOM  =      4914.84579160
  Solvation  Ediel_sol  =         0.00000000
  ---------------------------------------------------
  free energy    TOTEN  =       -16.51539152 eV

  energy without entropy =      -16.51539152  energy(sigma->0) =      -16.51539152


--------------------------------------------------------------------------------------------------------




--------------------------------------- Iteration      1(  11)  ---------------------------------------


    POTLOK:  cpu time    0.0102: real time    0.0103
    SETDIJ:  cpu time    0.0051: real time    0.0052
     EDDAV:  cpu time    0.3131: real time    0.3139
 BZINTS: Fermi energy:  9.542479; 28.000000 electrons
         Band energy:-400.236016;  BLOECHL correction: -0.054590
       DOS:  cpu time    0.0120: real time    0.0120
    CHARGE:  cpu time    0.0156: real time    0.0157
    MIXING:  cpu time    0.0005: real time    0.0005
    --------------------------------------------
      LOOP:  cpu time    0.3566: real time    0.3575

 eigenvalue-minimisations  :  2112
 total energy-change (2. order) :-0.8168295E-04  (-0.5016209E-05)
 number of electron      27.9999984 magnetization       4.3368282
 augmentation part       16.8281015 magnetization       3.4210735

 Broyden mixing:
  rms(total) = 0.25110E-02    rms(broyden)= 0.25110E-02
  rms(prec ) = 0.33298E-02
  weight for this iteration     100.00

 eigenvalues of (default mixing * dielectric matrix)
  average eigenvalue GAMMA=   1.2777
  2.2567  2.2567  1.0682  0.6349  0.7540  0.6959

 Free energy of the ion-electron system (eV)
  ---------------------------------------------------
  alpha Z        PSCENC =       218.87048721
  Ewald energy   TEWEN  =     -3616.56080017
  -Hartree energ DENC   =     -1088.73998674
  -exchange      EXHF   =         0.00000000
  -V(xc)+E(xc)   XCENC  =       140.78007743
  PAW double counting   =      4367.89434473    -4553.36937098
  entropy T*S    EENTRO =         0.00000000
  eigenvalues    EBANDS =      -400.23601628
  atomic energy  EATOM  =      4914.84579160
  Solvation  Ediel_sol  =         0.00000000
  ---------------------------------------------------
  free energy    TOTEN  =       -16.51547320 eV

  energy without entropy =      -16.51547320  energy(sigma->0) =      -16.51547320


--------------------------------------------------------------------------------------------------------




--------------------------------------- Iteration      1(  12)  ---------------------------------------


    POTLOK:  cpu time    0.0102: real time    0.0103
    SETDIJ:  cpu time    0.0051: real time    0.0051
     EDDAV:  cpu time    0.3242: real time    0.3251
 BZINTS: Fermi energy:  9.541042; 28.000000 electrons
         Band energy:-400.266322;  BLOECHL correction: -0.054645
       DOS:  cpu time    0.0120: real time    0.0120
    CHARGE:  cpu time    0.0158: real time    0.0158
    MIXING:  cpu time    0.0005: real time    0.0005
    --------------------------------------------
      LOOP:  cpu time    0.3678: real time    0.3690

 eigenvalue-minimisations  :  2208
 total energy-change (2. order) :-0.5340894E-04  (-0.3961303E-06)
 number of electron      27.9999984 magnetization       4.3365723
 augmentation part       16.8287103 magnetization       3.4210403

 Broyden mixing:
  rms(total) = 0.98488E-03    rms(broyden)= 0.98488E-03
  rms(prec ) = 0.11885E-02
  weight for this iteration     100.00

 eigenvalues of (default mixing * dielectric matrix)
  average eigenvalue GAMMA=   1.2317
  2.4140  2.4140  1.0766  0.7754  0.7155  0.6318  0.5950

 Free energy of the ion-electron system (eV)
  ---------------------------------------------------
  alpha Z        PSCENC =       218.87048721
  Ewald energy   TEWEN  =     -3616.56080017
  -Hartree energ DENC   =     -1088.78675367
  -exchange      EXHF   =         0.00000000
  -V(xc)+E(xc)   XCENC  =       140.78288611
  PAW double counting   =      4368.92941063    -4554.33022594
  entropy T*S    EENTRO =         0.00000000
  eigenvalues    EBANDS =      -400.26632238
  atomic energy  EATOM  =      4914.84579160
  Solvation  Ediel_sol  =         0.00000000
  ---------------------------------------------------
  free energy    TOTEN  =       -16.51552661 eV

  energy without entropy =      -16.51552661  energy(sigma->0) =      -16.51552661


--------------------------------------------------------------------------------------------------------




--------------------------------------- Iteration      1(  13)  ---------------------------------------


    POTLOK:  cpu time    0.0102: real time    0.0103
    SETDIJ:  cpu time    0.0052: real time    0.0052
     EDDAV:  cpu time    0.3151: real time    0.3159
 BZINTS: Fermi energy:  9.541335; 28.000000 electrons
         Band energy:-400.261315;  BLOECHL correction: -0.054625
       DOS:  cpu time    0.0111: real time    0.0111
    CHARGE:  cpu time    0.0169: real time    0.0169
    MIXING:  cpu time    0.0005: real time    0.0005
    --------------------------------------------
      LOOP:  cpu time    0.3590: real time    0.3599

 eigenvalue-minimisations  :  2136
 total energy-change (2. order) : 0.1869414E-04  (-0.5733842E-07)
 number of electron      27.9999984 magnetization       4.3361390
 augmentation part       16.8285761 magnetization       3.4205030

 Broyden mixing:
  rms(total) = 0.46234E-03    rms(broyden)= 0.46234E-03
  rms(prec ) = 0.56469E-03
  weight for this iteration     100.00

 eigenvalues of (default mixing * dielectric matrix)
  average eigenvalue GAMMA=   1.3056
  2.5032  2.5032  1.5472  1.0566  0.8182  0.6275  0.6945  0.6945

 Free energy of the ion-electron system (eV)
  ---------------------------------------------------
  alpha Z        PSCENC =       218.87048721
  Ewald energy   TEWEN  =     -3616.56080017
  -Hartree energ DENC   =     -1088.79013680
  -exchange      EXHF   =         0.00000000
  -V(xc)+E(xc)   XCENC  =       140.78261701
  PAW double counting   =      4369.07442094    -4554.47657283
  entropy T*S    EENTRO =         0.00000000
  eigenvalues    EBANDS =      -400.26131488
  atomic energy  EATOM  =      4914.84579160
  Solvation  Ediel_sol  =         0.00000000
  ---------------------------------------------------
  free energy    TOTEN  =       -16.51550792 eV

  energy without entropy =      -16.51550792  energy(sigma->0) =      -16.51550792


--------------------------------------------------------------------------------------------------------




--------------------------------------- Iteration      1(  14)  ---------------------------------------


    POTLOK:  cpu time    0.0103: real time    0.0104
    SETDIJ:  cpu time    0.0052: real time    0.0052
     EDDAV:  cpu time    0.2642: real time    0.2648
 BZINTS: Fermi energy:  9.541681; 28.000000 electrons
         Band energy:-400.255199;  BLOECHL correction: -0.054607
       DOS:  cpu time    0.0114: real time    0.0114
    CHARGE:  cpu time    0.0157: real time    0.0157
    MIXING:  cpu time    0.0006: real time    0.0006
    --------------------------------------------
      LOOP:  cpu time    0.3073: real time    0.3081

 eigenvalue-minimisations  :  1668
 total energy-change (2. order) : 0.1986974E-04  (-0.2854841E-07)
 number of electron      27.9999984 magnetization       4.3361782
 augmentation part       16.8284304 magnetization       3.4204758

 Broyden mixing:
  rms(total) = 0.88701E-04    rms(broyden)= 0.88700E-04
  rms(prec ) = 0.95123E-04
  weight for this iteration     100.00

 eigenvalues of (default mixing * dielectric matrix)
  average eigenvalue GAMMA=   1.2188
  2.6108  2.4740  1.3584  1.0470  0.8314  0.6845  0.6845  0.6394  0.6394

 Free energy of the ion-electron system (eV)
  ---------------------------------------------------
  alpha Z        PSCENC =       218.87048721
  Ewald energy   TEWEN  =     -3616.56080017
  -Hartree energ DENC   =     -1088.79326034
  -exchange      EXHF   =         0.00000000
  -V(xc)+E(xc)   XCENC  =       140.78221732
  PAW double counting   =      4369.12779523    -4554.53252006
  entropy T*S    EENTRO =         0.00000000
  eigenvalues    EBANDS =      -400.25519883
  atomic energy  EATOM  =      4914.84579160
  Solvation  Ediel_sol  =         0.00000000
  ---------------------------------------------------
  free energy    TOTEN  =       -16.51548805 eV

  energy without entropy =      -16.51548805  energy(sigma->0) =      -16.51548805


--------------------------------------------------------------------------------------------------------




--------------------------------------- Iteration      1(  15)  ---------------------------------------


    POTLOK:  cpu time    0.0102: real time    0.0103
    SETDIJ:  cpu time    0.0052: real time    0.0052
     EDDAV:  cpu time    0.1958: real time    0.1964
 BZINTS: Fermi energy:  9.541663; 28.000000 electrons
         Band energy:-400.255581;  BLOECHL correction: -0.054607
       DOS:  cpu time    0.0117: real time    0.0117
    CHARGE:  cpu time    0.0169: real time    0.0169
    MIXING:  cpu time    0.0006: real time    0.0006
    --------------------------------------------
      LOOP:  cpu time    0.2404: real time    0.2412

 eigenvalue-minimisations  :  1032
 total energy-change (2. order) :-0.4119020E-06  (-0.1797176E-08)
 number of electron      27.9999984 magnetization       4.3361286
 augmentation part       16.8284371 magnetization       3.4204422

 Broyden mixing:
  rms(total) = 0.19720E-04    rms(broyden)= 0.19720E-04
  rms(prec ) = 0.28516E-04
  weight for this iteration     100.00

 eigenvalues of (default mixing * dielectric matrix)
  average eigenvalue GAMMA=   1.1979
  2.6295  2.4774  1.3791  1.0412  0.8704  0.8704  0.7133  0.7133  0.6249  0.6597

 Free energy of the ion-electron system (eV)
  ---------------------------------------------------
  alpha Z        PSCENC =       218.87048721
  Ewald energy   TEWEN  =     -3616.56080017
  -Hartree energ DENC   =     -1088.79298720
  -exchange      EXHF   =         0.00000000
  -V(xc)+E(xc)   XCENC  =       140.78227912
  PAW double counting   =      4369.12190986    -4554.52658822
  entropy T*S    EENTRO =         0.00000000
  eigenvalues    EBANDS =      -400.25558067
  atomic energy  EATOM  =      4914.84579160
  Solvation  Ediel_sol  =         0.00000000
  ---------------------------------------------------
  free energy    TOTEN  =       -16.51548846 eV

  energy without entropy =      -16.51548846  energy(sigma->0) =      -16.51548846


--------------------------------------------------------------------------------------------------------




--------------------------------------- Iteration      1(  16)  ---------------------------------------


    POTLOK:  cpu time    0.0102: real time    0.0103
    SETDIJ:  cpu time    0.0052: real time    0.0052
     EDDAV:  cpu time    0.1933: real time    0.1938
 BZINTS: Fermi energy:  9.541663; 28.000000 electrons
         Band energy:-400.255699;  BLOECHL correction: -0.054607
       DOS:  cpu time    0.0120: real time    0.0120
    CHARGE:  cpu time    0.0156: real time    0.0157
    MIXING:  cpu time    0.0006: real time    0.0006
    --------------------------------------------
      LOOP:  cpu time    0.2370: real time    0.2376

 eigenvalue-minimisations  :  1008
 total energy-change (2. order) : 0.6368891E-06  (-0.1908430E-09)
 number of electron      27.9999984 magnetization       4.3361455
 augmentation part       16.8284389 magnetization       3.4204638

 Broyden mixing:
  rms(total) = 0.15493E-04    rms(broyden)= 0.15493E-04
  rms(prec ) = 0.16487E-04
  weight for this iteration     100.00

 eigenvalues of (default mixing * dielectric matrix)
  average eigenvalue GAMMA=   1.2279
  2.6479  2.4607  1.7749  1.3745  1.0444  0.8128  0.7067  0.7067  0.6208  0.7000
  0.6578

 Free energy of the ion-electron system (eV)
  ---------------------------------------------------
  alpha Z        PSCENC =       218.87048721
  Ewald energy   TEWEN  =     -3616.56080017
  -Hartree energ DENC   =     -1088.79275007
  -exchange      EXHF   =         0.00000000
  -V(xc)+E(xc)   XCENC  =       140.78225356
  PAW double counting   =      4369.10951355    -4554.51428482
  entropy T*S    EENTRO =         0.00000000
  eigenvalues    EBANDS =      -400.25569869
  atomic energy  EATOM  =      4914.84579160
  Solvation  Ediel_sol  =         0.00000000
  ---------------------------------------------------
  free energy    TOTEN  =       -16.51548782 eV

  energy without entropy =      -16.51548782  energy(sigma->0) =      -16.51548782


--------------------------------------------------------------------------------------------------------




--------------------------------------- Iteration      1(  17)  ---------------------------------------


    POTLOK:  cpu time    0.0102: real time    0.0103
    SETDIJ:  cpu time    0.0052: real time    0.0052
     EDDAV:  cpu time    0.1928: real time    0.1933
 BZINTS: Fermi energy:  9.541666; 28.000000 electrons
         Band energy:-400.255617;  BLOECHL correction: -0.054607
       DOS:  cpu time    0.0114: real time    0.0114
    CHARGE:  cpu time    0.0154: real time    0.0155
    MIXING:  cpu time    0.0007: real time    0.0007
    --------------------------------------------
      LOOP:  cpu time    0.2357: real time    0.2364

 eigenvalue-minimisations  :  1008
 total energy-change (2. order) :-0.1914877E-06  (-0.2768545E-10)
 number of electron      27.9999984 magnetization       4.3361560
 augmentation part       16.8284377 magnetization       3.4204729

 Broyden mixing:
  rms(total) = 0.39817E-05    rms(broyden)= 0.39817E-05
  rms(prec ) = 0.44358E-05
  weight for this iteration     100.00

 eigenvalues of (default mixing * dielectric matrix)
  average eigenvalue GAMMA=   1.2751
  2.7102  2.5305  2.5305  1.3407  1.0308  0.8945  0.8945  0.7253  0.7253  0.6487
  0.6487  0.6211

 Free energy of the ion-electron system (eV)
  ---------------------------------------------------
  alpha Z        PSCENC =       218.87048721
  Ewald energy   TEWEN  =     -3616.56080017
  -Hartree energ DENC   =     -1088.79254494
  -exchange      EXHF   =         0.00000000
  -V(xc)+E(xc)   XCENC  =       140.78225184
  PAW double counting   =      4369.09912471    -4554.50418101
  entropy T*S    EENTRO =         0.00000000
  eigenvalues    EBANDS =      -400.25561726
  atomic energy  EATOM  =      4914.84579160
  Solvation  Ediel_sol  =         0.00000000
  ---------------------------------------------------
  free energy    TOTEN  =       -16.51548801 eV

  energy without entropy =      -16.51548801  energy(sigma->0) =      -16.51548801


--------------------------------------------------------------------------------------------------------




--------------------------------------- Iteration      1(  18)  ---------------------------------------


    POTLOK:  cpu time    0.0103: real time    0.0104
    SETDIJ:  cpu time    0.0051: real time    0.0052
     EDDAV:  cpu time    0.1873: real time    0.1877
 BZINTS: Fermi energy:  9.541666; 28.000000 electrons
         Band energy:-400.255609;  BLOECHL correction: -0.054607
       DOS:  cpu time    0.0120: real time    0.0120
    CHARGE:  cpu time    0.0156: real time    0.0157
    MIXING:  cpu time    0.0007: real time    0.0007
    --------------------------------------------
      LOOP:  cpu time    0.2310: real time    0.2317

 eigenvalue-minimisations  :   960
 total energy-change (2. order) :-0.2049837E-06  (-0.2694632E-11)
 number of electron      27.9999984 magnetization       4.3361551
 augmentation part       16.8284382 magnetization       3.4204715

 Broyden mixing:
  rms(total) = 0.88874E-06    rms(broyden)= 0.88874E-06
  rms(prec ) = 0.96353E-06
  weight for this iteration     100.00

 eigenvalues of (default mixing * dielectric matrix)
  average eigenvalue GAMMA=   1.2331
  2.7028  2.5316  2.5316  1.2942  1.0554  1.0554  0.8096  0.7307  0.7307  0.6812
  0.6298  0.6390  0.6390

 Free energy of the ion-electron system (eV)
  ---------------------------------------------------
  alpha Z        PSCENC =       218.87048721
  Ewald energy   TEWEN  =     -3616.56080017
  -Hartree energ DENC   =     -1088.79252531
  -exchange      EXHF   =         0.00000000
  -V(xc)+E(xc)   XCENC  =       140.78225541
  PAW double counting   =      4369.09599942    -4554.50108695
  entropy T*S    EENTRO =         0.00000000
  eigenvalues    EBANDS =      -400.25560943
  atomic energy  EATOM  =      4914.84579160
  Solvation  Ediel_sol  =         0.00000000
  ---------------------------------------------------
  free energy    TOTEN  =       -16.51548822 eV

  energy without entropy =      -16.51548822  energy(sigma->0) =      -16.51548822


--------------------------------------------------------------------------------------------------------




--------------------------------------- Iteration      1(  19)  ---------------------------------------


    POTLOK:  cpu time    0.0104: real time    0.0105
    SETDIJ:  cpu time    0.0052: real time    0.0052
     EDDAV:  cpu time    0.1870: real time    0.1876
 BZINTS: Fermi energy:  9.541666; 28.000000 electrons
         Band energy:-400.255608;  BLOECHL correction: -0.054607
       DOS:  cpu time    0.0117: real time    0.0117
    --------------------------------------------
      LOOP:  cpu time    0.2142: real time    0.2149

 eigenvalue-minimisations  :   960
 total energy-change (2. order) : 0.2575234E-07  (-0.3159066E-12)
 number of electron      27.9999984 magnetization       4.3361551
 augmentation part       16.8284382 magnetization       3.4204715

 Free energy of the ion-electron system (eV)
  ---------------------------------------------------
  alpha Z        PSCENC =       218.87048721
  Ewald energy   TEWEN  =     -3616.56080017
  -Hartree energ DENC   =     -1088.79253015
  -exchange      EXHF   =         0.00000000
  -V(xc)+E(xc)   XCENC  =       140.78225517
  PAW double counting   =      4369.09621997    -4554.50130335
  entropy T*S    EENTRO =         0.00000000
  eigenvalues    EBANDS =      -400.25560848
  atomic energy  EATOM  =      4914.84579160
  Solvation  Ediel_sol  =         0.00000000
  ---------------------------------------------------
  free energy    TOTEN  =       -16.51548819 eV

  energy without entropy =      -16.51548819  energy(sigma->0) =      -16.51548819


--------------------------------------------------------------------------------------------------------




 average (electrostatic) potential at core
  the test charge radii are     0.9500
  (the norm of the test charge is              1.0000)
       1 -73.7164       2 -73.7164
 
 
 
 E-fermi :   9.5417     XC(G=0): -13.6296     alpha+bet :-17.4163


 spin component 1

 k-point     1 :       0.0000    0.0000    0.0000
  band No.  band energies     occupation 
      1     -44.5860      1.00000
      2     -44.5860      1.00000
      3     -44.5860      1.00000
      4     -44.2998      1.00000
      5     -44.2998      1.00000
      6     -44.2998      1.00000
      7       1.2378      1.00000
      8       4.8521      1.00000
      9       4.8521      1.00000
     10       7.3187      1.00000
     11       7.3187      1.00000
     12       7.3187      1.00000
     13       8.5727      1.00000
     14       8.5727      1.00000
     15       9.7056      0.81906
     16       9.7056      0.65087
     17       9.7056     -0.02736
     18      19.4701      0.00000
     19      19.4701      0.00000
     20      19.4701      0.00000
     21      25.3136      0.00000
     22      25.3136      0.00000
     23      30.2081      0.00000
     24      33.9478      0.00000

 k-point     2 :       0.1429    0.0000    0.0000
  band No.  band energies     occupation 
      1     -44.5835      1.00000
      2     -44.5711      1.00000
      3     -44.5711      1.00000
      4     -44.3260      1.00000
      5     -44.3132      1.00000
      6     -44.3132      1.00000
      7       1.6548      1.00000
      8       5.0273      1.00000
      9       5.0287      1.00000
     10       7.3184      1.00000
     11       7.3184      1.00000
     12       7.4313      1.00000
     13       8.3865      1.00000
     14       8.6452      1.00000
     15       9.3769      0.99044
     16       9.3769      0.99262
     17       9.5819      0.15253
     18      17.1270      0.00000
     19      20.2481      0.00000
     20      20.2481      0.00000
     21      25.4282      0.00000
     22      26.7242      0.00000
     23      31.7663      0.00000
     24      32.1305      0.00000

 k-point     3 :       0.2857    0.0000    0.0000
  band No.  band energies     occupation 
      1     -44.5702      1.00000
      2     -44.5296      1.00000
      3     -44.5296      1.00000
      4     -44.3924      1.00000
      5     -44.3511      1.00000
      6     -44.3511      1.00000
      7       2.8198      1.00000
      8       5.3884      1.00000
      9       5.5296      1.00000
     10       7.3662      1.00000
     11       7.3662      1.00000
     12       7.7498      1.00000
     13       7.8620      1.00000
     14       8.6746      1.00000
     15       8.6746      1.00000
     16       8.8534      1.00000
     17       9.2382      1.21697
     18      13.5790      0.00000
     19      22.2776      0.00000
     20      22.2776      0.00000
     21      25.8048      0.00000
     22      27.6621      0.00000
     23      29.6469      0.00000
     24      31.5507      0.00000

 k-point     4 :       0.4286    0.0000    0.0000
  band No.  band energies     occupation 
      1     -44.5342      1.00000
      2     -44.4708      1.00000
      3     -44.4708      1.00000
      4     -44.4708      1.00000
      5     -44.4071      1.00000
      6     -44.4071      1.00000
      7       4.3702      1.00000
      8       5.3941      1.00000
      9       6.2679      1.00000
     10       7.1027      1.00000
     11       7.5681      1.00000
     12       7.5681      1.00000
     13       8.0085      1.00000
     14       8.0085      1.00000
     15       8.2183      1.00000
     16       8.7495      1.00000
     17       9.3234      1.03172
     18      10.7458      0.00000
     19      25.0785      0.00000
     20      25.0785      0.00000
     21      26.5388      0.00000
     22      27.7732      0.00000
     23      28.3061      0.00000
     24      28.3061      0.00000

 k-point     5 :       0.1429    0.1429    0.0000
  band No.  band energies     occupation 
      1     -44.6069      1.00000
      2     -44.5575      1.00000
      3     -44.5329      1.00000
      4     -44.3759      1.00000
      5     -44.3251      1.00000
      6     -44.2998      1.00000
      7       2.0553      1.00000
      8       5.1675      1.00000
      9       5.2240      1.00000
     10       7.1056      1.00000
     11       7.2753      1.00000
     12       7.7509      1.00000
     13       8.4092      1.00000
     14       8.5923      1.00000
     15       8.8425      1.00752
     16       9.0614      1.01236
     17       9.7552     -0.10696
     18      17.2630      0.00000
     19      18.3121      0.00000
     20      20.9366      0.00000
     21      26.1154      0.00000
     22      28.2551      0.00000
     23      30.2218      0.00000
     24      32.7686      0.00000

 k-point     6 :       0.2857    0.1429    0.0000
  band No.  band energies     occupation 
      1     -44.6146      1.00000
      2     -44.5199      1.00000
      3     -44.4778      1.00000
      4     -44.4554      1.00000
      5     -44.3590      1.00000
      6     -44.3161      1.00000
      7       3.1546      1.00000
      8       5.4743      1.00000
      9       5.7082      1.00000
     10       6.9915      1.00000
     11       7.2054      1.00000
     12       8.0940      1.00000
     13       8.1478      1.00000
     14       8.2098      1.00000
     15       8.4620      1.00000
     16       8.7776      1.00000
     17       9.6271      0.22305
     18      14.0007      0.00000
     19      19.5917      0.00000
     20      22.8015      0.00000
     21      26.5686      0.00000
     22      27.1420      0.00000
     23      30.0375      0.00000
     24      30.8632      0.00000

 k-point     7 :       0.4286    0.1429    0.0000
  band No.  band energies     occupation 
      1     -44.5919      1.00000
      2     -44.5353      1.00000
      3     -44.4667      1.00000
      4     -44.4166      1.00000
      5     -44.4093      1.00000
      6     -44.3588      1.00000
      7       4.5458      1.00000
      8       5.4412      1.00000
      9       6.3339      1.00000
     10       6.9394      1.00000
     11       7.0931      1.00000
     12       7.4659      1.00000
     13       8.0088      1.00000
     14       8.1022      1.00000
     15       8.7298      1.00000
     16       9.2394      1.00000
     17       9.3103      0.92862
     18      11.0089      0.00000
     19      21.7601      0.00000
     20      24.2900      0.00000
     21      25.4745      0.00000
     22      27.3528      0.00000
     23      28.6505      0.00000
     24      28.7719      0.00000

 k-point     8 :       0.2857    0.2857    0.0000
  band No.  band energies     occupation 
      1     -44.6538      1.00000
      2     -44.5445      1.00000
      3     -44.4931      1.00000
      4     -44.4121      1.00000
      5     -44.3817      1.00000
      6     -44.2996      1.00000
      7       3.9681      1.00000
      8       5.4316      1.00000
      9       6.3325      1.00000
     10       6.6488      1.00000
     11       7.2911      1.00000
     12       7.3449      1.00000
     13       8.2119      1.00000
     14       8.4465      1.00000
     15       8.6618      1.00000
     16       8.8212      1.01537
     17       9.8675     -0.13572
     18      13.9358      0.00000
     19      17.2594      0.00000
     20      23.7038      0.00000
     21      24.3076      0.00000
     22      26.8680      0.00000
     23      29.8301      0.00000
     24      32.7443      0.00000

 k-point     9 :       0.4286    0.2857    0.0000
  band No.  band energies     occupation 
      1     -44.6581      1.00000
      2     -44.6192      1.00000
      3     -44.4556      1.00000
      4     -44.4159      1.00000
      5     -44.3549      1.00000
      6     -44.3146      1.00000
      7       4.7262      1.00000
      8       5.1823      1.00000
      9       6.5646      1.00000
     10       6.8000      1.00000
     11       7.0475      1.00000
     12       7.5094      1.00000
     13       8.3059      1.00000
     14       8.4876      1.00000
     15       9.2563      1.00000
     16       9.3697      0.97988
     17       9.7554     -0.00583
     18      11.4408      0.00000
     19      18.3997      0.00000
     20      20.7314      0.00000
     21      26.6260      0.00000
     22      27.4031      0.00000
     23      28.4400      0.00000
     24      29.5567      0.00000

 k-point    10 :       0.4286    0.4286    0.0000
  band No.  band energies     occupation 
      1     -44.6912      1.00000
      2     -44.6774      1.00000
      3     -44.4411      1.00000
      4     -44.4269      1.00000
      5     -44.3139      1.00000
      6     -44.2995      1.00000
      7       4.7393      1.00000
      8       4.8693      1.00000
      9       6.3022      1.00000
     10       6.3819      1.00000
     11       8.0852      1.00000
     12       8.5179      1.00000
     13       8.5600      1.00000
     14       8.7449      1.00000
     15       9.4117      1.00000
     16       9.8138      0.21321
     17       9.9587     -0.00037
     18      10.9757      0.00000
     19      16.9367      0.00000
     20      18.0538      0.00000
     21      27.5310      0.00000
     22      27.9192      0.00000
     23      28.3839      0.00000
     24      30.0199      0.00000

 k-point    11 :       0.1429    0.1429    0.1429
  band No.  band energies     occupation 
      1     -44.5909      1.00000
      2     -44.5909      1.00000
      3     -44.4906      1.00000
      4     -44.4168      1.00000
      5     -44.3142      1.00000
      6     -44.3142      1.00000
      7       2.4446      1.00000
      8       5.3598      1.00000
      9       5.3598      1.00000
     10       7.0489      1.00000
     11       7.0489      1.00000
     12       8.0913      1.00000
     13       8.1885      1.00000
     14       8.5017      1.00000
     15       8.5017      1.00346
     16       9.4308      0.99589
     17       9.4308      0.75980
     18      17.9313      0.00000
     19      17.9313      0.00000
     20      19.2466      0.00000
     21      28.5035      0.00000
     22      28.5035      0.00000
     23      30.0273      0.00000
     24      30.0273      0.00000

 k-point    12 :       0.2857    0.1429    0.1429
  band No.  band energies     occupation 
      1     -44.6148      1.00000
      2     -44.5465      1.00000
      3     -44.4913      1.00000
      4     -44.4364      1.00000
      5     -44.3550      1.00000
      6     -44.3176      1.00000
      7       3.4969      1.00000
      8       5.7272      1.00000
      9       5.7308      1.00000
     10       6.9019      1.00000
     11       6.9026      1.00000
     12       7.4882      1.00000
     13       8.2757      1.00000
     14       8.6363      1.00000
     15       8.7499      1.00000
     16       8.7823      1.00000
     17       9.4823      0.59079
     18      14.4995      0.00000
     19      19.5883      0.00000
     20      20.3657      0.00000
     21      26.9185      0.00000
     22      28.0073      0.00000
     23      29.2908      0.00000
     24      30.6767      0.00000

 k-point    13 :       0.4286    0.1429    0.1429
  band No.  band energies     occupation 
      1     -44.6070      1.00000
      2     -44.5626      1.00000
      3     -44.4835      1.00000
      4     -44.4151      1.00000
      5     -44.3851      1.00000
      6     -44.3432      1.00000
      7       4.7719      1.00000
      8       5.6168      1.00000
      9       6.2224      1.00000
     10       6.6495      1.00000
     11       7.0643      1.00000
     12       7.2322      1.00000
     13       8.1041      1.00000
     14       8.2627      1.00000
     15       8.9031      1.00000
     16       9.2206      1.00000
     17       9.6170      0.23226
     18      11.4750      0.00000
     19      21.7417      0.00000
     20      22.3721      0.00000
     21      24.1770      0.00000
     22      24.9753      0.00000
     23      30.7019      0.00000
     24      31.8505      0.00000

 k-point    14 :       0.2857    0.2857    0.1429
  band No.  band energies     occupation 
      1     -44.6355      1.00000
      2     -44.5590      1.00000
      3     -44.5302      1.00000
      4     -44.3862      1.00000
      5     -44.3764      1.00000
      6     -44.3163      1.00000
      7       4.3234      1.00000
[...]
     19      18.4528      0.00000
     20      21.8940      0.00000
     21      24.5906      0.00000
     22      27.8514      0.00000
     23      30.3411      0.00000
     24      30.7007      0.00000

 k-point    15 :       0.4286    0.2857    0.1429
  band No.  band energies     occupation 
      1     -42.1189      1.00000
      2     -42.0894      1.00000
      3     -41.9344      1.00000
      4     -41.8720      1.00000
      5     -41.7899      1.00000
      6     -41.7643      1.00000
      7       5.8271      1.00000
      8       6.7196      1.00000
      9       8.1994      1.00000
     10       8.2000      1.00000
     11       8.6016      1.00249
     12       8.6191      1.01581
     13      10.7486      0.00000
     14      10.8840      0.00000
     15      11.4700      0.00000
     16      11.6347      0.00000
     17      12.3047      0.00000
     18      13.7723      0.00000
     19      19.6112      0.00000
     20      21.8057      0.00000
     21      23.5892      0.00000
     22      25.8041      0.00000
     23      30.2669      0.00000
     24      30.8967      0.00000

 k-point    16 :       0.4286    0.4286    0.1429
  band No.  band energies     occupation 
      1     -42.1481      1.00000
      2     -42.1379      1.00000
      3     -41.9099      1.00000
      4     -41.8862      1.00000
      5     -41.7656      1.00000
      6     -41.7576      1.00000
      7       6.2068      1.00000
      8       6.4561      1.00000
      9       7.9743      1.00000
     10       8.0272      1.00000
     11       9.1511      1.01905
     12       9.1773      1.00508
     13      11.0426      0.00000
     14      11.1349      0.00000
     15      11.4480      0.00000
     16      11.6042      0.00000
     17      12.9504      0.00000
     18      13.6616      0.00000
     19      18.2928      0.00000
     20      19.3243      0.00000
     21      24.9077      0.00000
     22      26.2991      0.00000
     23      28.1264      0.00000
     24      29.1356      0.00000

 k-point    17 :       0.2857    0.2857    0.2857
  band No.  band energies     occupation 
      1     -42.0602      1.00000
      2     -42.0514      1.00000
      3     -42.0514      1.00000
      4     -41.8076      1.00000
      5     -41.8076      1.00000
      6     -41.8003      1.00000
      7       5.5975      1.00000
      8       7.8276      1.00000
      9       7.9254      1.00000
     10       7.9254      1.00000
     11       8.1368      1.00000
     12       8.1368      1.00764
     13      11.2404      0.00000
     14      11.2404      0.00000
     15      11.2446      0.00000
     16      11.2446      0.00000
     17      12.3388      0.00000
     18      17.5217      0.00000
     19      17.5217      0.00000
     20      19.8611      0.00000
     21      24.8842      0.00000
     22      24.8842      0.00000
     23      26.8160      0.00000
     24      32.1581      0.00000

 k-point    18 :       0.4286    0.2857    0.2857
  band No.  band energies     occupation 
      1     -42.0898      1.00000
      2     -42.0891      1.00000
      3     -41.9713      1.00000
      4     -41.8843      1.00000
      5     -41.7936      1.00000
      6     -41.7884      1.00000
      7       6.5797      1.00000
      8       7.2083      1.00000
      9       7.8931      1.00000
     10       7.9513      1.00000
     11       8.1615      1.00000
     12       8.3392      1.00000
     13      11.0786      0.00000
     14      11.1384      0.00000
     15      11.4478      0.00000
     16      11.4482      0.00000
     17      13.4034      0.00000
     18      15.0802      0.00000
     19      19.6671      0.00000
     20      20.7718      0.00000
     21      22.1240      0.00000
     22      22.8280      0.00000
     23      27.0831      0.00000
     24      29.2223      0.00000

 k-point    19 :       0.4286    0.4286    0.2857
  band No.  band energies     occupation 
      1     -42.0925      1.00000
      2     -42.0859      1.00000
      3     -41.9526      1.00000
      4     -41.9047      1.00000
      5     -41.8156      1.00000
      6     -41.8034      1.00000
      7       7.0052      1.00000
      8       7.1288      1.00000
      9       7.8199      1.00000
     10       7.8524      1.00000
     11       8.3199      1.00000
     12       8.4639      1.00000
     13      11.2710      0.00000
     14      11.3071      0.00000
     15      11.4636      0.00000
     16      11.4674      0.00000
     17      14.5600      0.00000
     18      15.6526      0.00000
     19      18.3818      0.00000
     20      19.7485      0.00000
     21      21.7002      0.00000
     22      23.4818      0.00000
     23      24.4877      0.00000
     24      26.2864      0.00000

 k-point    20 :       0.4286    0.4286    0.4286
  band No.  band energies     occupation 
      1     -42.0402      1.00000
      2     -41.9973      1.00000
      3     -41.9973      1.00000
      4     -41.9008      1.00000
      5     -41.9008      1.00000
      6     -41.8576      1.00000
      7       7.5338      1.00000
      8       7.7629      1.00000
      9       7.7629      1.00000
     10       7.8023      1.00000
     11       7.9568      1.00000
     12       7.9568      1.00000
     13      11.4603      0.00000
     14      11.4603      0.00000
     15      11.4690      0.00000
     16      11.4690      0.00000
     17      16.2668      0.00000
     18      18.0120      0.00000
     19      18.0120      0.00000
     20      19.9663      0.00000
     21      20.6498      0.00000
     22      20.6498      0.00000
     23      21.9020      0.00000
     24      23.3867      0.00000


--------------------------------------------------------------------------------------------------------


 soft charge-density along one line, spin component           1
         0         1         2         3         4         5         6         7         8         9
 total charge-density along one line
 
 soft charge-density along one line, spin component           2
         0         1         2         3         4         5         6         7         8         9
 total charge-density along one line
 
 pseudopotential strength for first ion, spin component:           1
-44.880   0.000   0.000   7.580  -0.000  -0.000  -0.000  -0.000
  0.000 -44.880   0.000  -0.000   7.580  -0.000   0.000  -0.000
  0.000   0.000 -44.880  -0.000  -0.000   7.580  -0.000   0.000
  7.580  -0.000  -0.000   5.634  -0.000  -0.000   0.000   0.000
 -0.000   7.580  -0.000  -0.000   5.634  -0.000  -0.000   0.000
 -0.000  -0.000   7.580  -0.000  -0.000   5.634   0.000  -0.000
 -0.000   0.000  -0.000   0.000  -0.000   0.000  -1.995  -0.000
 -0.000  -0.000   0.000   0.000   0.000  -0.000  -0.000  -1.995
  0.000  -0.000   0.000  -0.000   0.000  -0.000  -0.000   0.000
  0.000  -0.000  -0.000  -0.000   0.000   0.000   0.000   0.000
  0.000  -0.000  -0.000  -0.000   0.000   0.000  -0.000  -0.000
 -0.000   0.000  -0.000   0.000  -0.000   0.000  -2.509  -0.000
 -0.000  -0.000   0.000   0.000   0.000  -0.000  -0.000  -2.509
  0.000  -0.000   0.000  -0.000   0.000  -0.000  -0.000   0.000
  0.000  -0.000  -0.000  -0.000   0.000   0.000   0.000   0.000
  0.000  -0.000  -0.000  -0.000   0.000   0.000  -0.000  -0.000
  0.000   0.000   0.000   0.000   0.000   0.000  -0.000  -0.000
  0.000   0.000   0.000   0.000   0.000   0.000  -0.000  -0.000
 pseudopotential strength for first ion, spin component:           2
-42.944   0.000   0.000   6.762  -0.000  -0.000  -0.000  -0.000
  0.000 -42.944  -0.000  -0.000   6.762   0.000   0.000  -0.000
  0.000  -0.000 -42.944  -0.000   0.000   6.762  -0.000   0.000
  6.762  -0.000  -0.000   5.858  -0.000  -0.000   0.000   0.000
 -0.000   6.762   0.000  -0.000   5.858   0.000  -0.000   0.000
 -0.000   0.000   6.762  -0.000   0.000   5.858   0.000  -0.000
 -0.000   0.000  -0.000   0.000  -0.000   0.000  -0.506  -0.000
 -0.000  -0.000   0.000   0.000   0.000  -0.000  -0.000  -0.506
  0.000  -0.000   0.000  -0.000   0.000  -0.000  -0.000   0.000
  0.000  -0.000  -0.000  -0.000   0.000   0.000   0.000   0.000
  0.000  -0.000  -0.000  -0.000   0.000   0.000  -0.000  -0.000
 -0.000   0.000  -0.000   0.000  -0.000   0.000  -1.045  -0.000
 -0.000  -0.000   0.000   0.000   0.000  -0.000  -0.000  -1.045
  0.000  -0.000   0.000  -0.000   0.000  -0.000  -0.000   0.000
  0.000  -0.000  -0.000  -0.000   0.000   0.000   0.000   0.000
  0.000  -0.000  -0.000  -0.000   0.000   0.000  -0.000  -0.000
  0.000   0.000   0.000   0.000   0.000   0.000  -0.000  -0.000
  0.000   0.000   0.000   0.000   0.000   0.000  -0.000  -0.000
 total augmentation occupancy for first ion, spin component:           1
  1.991   0.000   0.000  -0.027  -0.000   0.000   0.000   0.000   0.000   0.000   0.000   0.000   0.000   0.000   0.000   0.000
  0.000   1.991   0.000   0.000  -0.027   0.000  -0.000   0.000   0.000   0.000  -0.000  -0.000   0.000   0.000   0.000   0.000
  0.000   0.000   1.991   0.000  -0.000  -0.027   0.000   0.000   0.000   0.000   0.000   0.000   0.000   0.000   0.000   0.000
 -0.027   0.000   0.000   0.204   0.000   0.000   0.000  -0.000   0.000   0.000  -0.000   0.000   0.000   0.000   0.000   0.000
 -0.000  -0.027  -0.000   0.000   0.204  -0.000  -0.000   0.000   0.000  -0.000   0.000   0.000   0.000   0.000   0.000   0.000
  0.000  -0.000  -0.027   0.000  -0.000   0.204   0.000   0.000   0.000   0.000  -0.000   0.000   0.000   0.000   0.000   0.000
  0.000  -0.000   0.000  -0.000  -0.000   0.000   2.083  -0.000  -0.000  -0.000  -0.000  -1.152  -0.000  -0.000  -0.000  -0.000
  0.000   0.000   0.000   0.000   0.000   0.000  -0.000   2.083  -0.000  -0.000  -0.000   0.000  -1.152   0.000  -0.000   0.000
 -0.000   0.000   0.000   0.000   0.000   0.000  -0.000   0.000   3.437  -0.000  -0.000   0.000  -0.000  -2.191  -0.000  -0.000
  0.000   0.000   0.000   0.000   0.000   0.000  -0.000  -0.000  -0.000   2.083  -0.000   0.000  -0.000   0.000  -1.152  -0.000
  0.000   0.000   0.000   0.000   0.000  -0.000  -0.000  -0.000  -0.000  -0.000   3.437   0.000  -0.000   0.000  -0.000  -2.191
  0.000   0.000   0.000  -0.000   0.000  -0.000  -1.152   0.000  -0.000   0.000   0.000   1.588   0.000   0.000  -0.000  -0.000
  0.000   0.000   0.000  -0.000  -0.000   0.000  -0.000  -1.152  -0.000   0.000   0.000  -0.000   1.588  -0.000   0.000   0.000
  0.000   0.000   0.000   0.000   0.000   0.000  -0.000   0.000  -2.191   0.000  -0.000   0.000   0.000   2.216   0.000  -0.000
  0.000   0.000   0.000   0.000  -0.000  -0.000  -0.000   0.000  -0.000  -1.152   0.000  -0.000  -0.000  -0.000   1.588   0.000
  0.000   0.000   0.000   0.000   0.000  -0.000  -0.000  -0.000   0.000  -0.000  -2.191  -0.000   0.000  -0.000   0.000   2.216
  0.000  -0.000  -0.000  -0.000  -0.000  -0.000   0.000   0.000  -0.000  -0.000  -0.000  -0.000   0.000   0.000  -0.000  -0.000
  0.000   0.000   0.000  -0.000   0.000   0.000   0.000   0.000   0.000  -0.000   0.000  -0.000   0.000   0.000  -0.000  -0.000
 total augmentation occupancy for first ion, spin component:           2
 -0.002   0.000   0.000  -0.008   0.000  -0.000   0.000   0.000  -0.000   0.000  -0.000   0.000   0.000   0.000   0.000   0.000
  0.000  -0.002   0.000  -0.000  -0.008  -0.000   0.000   0.000   0.000   0.000   0.000  -0.000   0.000   0.000   0.000   0.000
  0.000   0.000  -0.002  -0.000   0.000  -0.008   0.000   0.000   0.000   0.000  -0.000   0.000   0.000  -0.000   0.000   0.000
 -0.008   0.000  -0.000  -0.018   0.000   0.000  -0.000   0.000  -0.000   0.000   0.000  -0.000  -0.000   0.000   0.000  -0.000
  0.000  -0.008   0.000   0.000  -0.018  -0.000   0.000  -0.000   0.000   0.000  -0.000   0.000  -0.000   0.000  -0.000   0.000
  0.000  -0.000  -0.008   0.000  -0.000  -0.018   0.000   0.000   0.000  -0.000  -0.000  -0.000   0.000   0.000   0.000   0.000
  0.000  -0.000   0.000   0.000   0.000  -0.000   1.679   0.000  -0.000  -0.000   0.000  -0.623   0.000  -0.000   0.000  -0.000
  0.000   0.000   0.000  -0.000  -0.000   0.000   0.000   1.679   0.000   0.000  -0.000  -0.000  -0.623   0.000   0.000  -0.000
 -0.000   0.000   0.000  -0.000   0.000  -0.000  -0.000  -0.000   2.869   0.000   0.000   0.000   0.000  -1.203   0.000   0.000
  0.000   0.000   0.000   0.000  -0.000  -0.000  -0.000   0.000   0.000   1.679   0.000  -0.000  -0.000  -0.000  -0.623   0.000
  0.000   0.000   0.000  -0.000   0.000   0.000  -0.000   0.000  -0.000   0.000   2.869  -0.000   0.000   0.000  -0.000  -1.203
  0.000  -0.000   0.000   0.000   0.000   0.000  -0.623   0.000   0.000  -0.000  -0.000  -0.019   0.000   0.000   0.000   0.000
  0.000   0.000   0.000   0.000   0.000   0.000  -0.000  -0.623  -0.000  -0.000   0.000  -0.000  -0.019  -0.000  -0.000  -0.000
 -0.000   0.000   0.000   0.000   0.000   0.000   0.000  -0.000  -1.203  -0.000  -0.000   0.000   0.000   0.271   0.000   0.000
  0.000   0.000   0.000   0.000   0.000   0.000  -0.000  -0.000   0.000  -0.623  -0.000  -0.000   0.000   0.000  -0.019   0.000
  0.000   0.000   0.000  -0.000   0.000   0.000  -0.000   0.000  -0.000   0.000  -1.203   0.000  -0.000   0.000   0.000   0.271
  0.000   0.000   0.000   0.000   0.000   0.000   0.000  -0.000  -0.000  -0.000   0.000  -0.000   0.000   0.000  -0.000  -0.000
 -0.000  -0.000  -0.000   0.000   0.000  -0.000  -0.000  -0.000  -0.000  -0.000   0.000   0.000  -0.000   0.000   0.000   0.000


------------------------ aborting loop because EDIFF is reached ----------------------------------------


 


 total charge     
 
# of ion       s       p       d       tot
------------------------------------------
    1        0.386   6.382   6.066  12.834
    2        0.386   6.382   6.066  12.834
--------------------------------------------------
tot          0.771  12.765  12.133  25.669
 


 magnetization (x)
 
# of ion       s       p       d       tot
------------------------------------------
    1       -0.006  -0.038   2.249   2.205
    2       -0.006  -0.038   2.249   2.205
--------------------------------------------------
tot         -0.012  -0.077   4.498   4.409
 
    CHARGE:  cpu time    0.0150: real time    0.0151
    FORLOC:  cpu time    0.0002: real time    0.0002
    FORNL :  cpu time    0.0659: real time    0.0661
    STRESS:  cpu time    0.1983: real time    0.1988
    FORCOR:  cpu time    0.0100: real time    0.0100
    FORHAR:  cpu time    0.0017: real time    0.0017
    MIXING:  cpu time    0.0008: real time    0.0008
    OFIELD:  cpu time    0.0000: real time    0.0000

  FORCE on cell =-STRESS in cart. coord.  units (eV):
  Direction    XX          YY          ZZ          XY          YZ          ZX
  --------------------------------------------------------------------------------------
  Alpha Z   218.87049   218.87049   218.87049
  Ewald   -1205.52018 -1205.52018 -1205.52018    -0.00000    -0.00000    -0.00000
  Hartree   362.93083   362.93083   362.93083    -0.00000    -0.00000    -0.00000
  E(xc)    -179.67987  -179.67987  -179.67987     0.00000    -0.00000     0.00000
  Local     289.59683   289.59683   289.59683    -0.00000     0.00000    -0.00000
  n-local   -59.66630   -53.99733   -50.25087     2.79671    -1.22066     0.36034
  augment   285.54612   285.54612   285.54612    -0.00000     0.00000    -0.00000
  Kinetic   284.09124   282.42658   281.12115     3.67285    -0.67368    -0.05843
  Fock        0.00000     0.00000     0.00000     0.00000     0.00000     0.00000
  -------------------------------------------------------------------------------------
  Total      -0.34762    -0.34762    -0.34762     0.00000     0.00000     0.00000
  in kB     -24.31308   -24.31308   -24.31308     0.00000     0.00000     0.00000
  external pressure =      -24.31 kB  Pullay stress =        0.00 kB


 VOLUME and BASIS-vectors are now :
 -----------------------------------------------------------------------------
  energy-cutoff  :      920.00
  volume of cell :       22.91
      direct lattice vectors                 reciprocal lattice vectors
     2.840052000  0.000000000  0.000000000     0.352106229  0.000000000  0.000000000
     0.000000000  2.840052000  0.000000000     0.000000000  0.352106229  0.000000000
     0.000000000  0.000000000  2.840052000     0.000000000  0.000000000  0.352106229

  length of vectors
     2.840052000  2.840052000  2.840052000     0.352106229  0.352106229  0.352106229


 FORCES acting on ions
    electron-ion (+dipol)            ewald-force                    non-local-force                 convergence-correction
 -----------------------------------------------------------------------------------------------
   -.357E-13 -.285E-13 -.531E-13   -.529E-15 -.103E-14 -.897E-14   0.113E-25 0.323E-26 0.291E-25   -.105E-13 -.359E-14 -.254E-13
   0.847E-12 0.747E-11 0.865E-11   0.472E-14 0.447E-14 0.926E-14   -.646E-26 -.969E-26 -.646E-26   -.815E-14 -.235E-14 -.103E-12
 -----------------------------------------------------------------------------------------------
   0.811E-12 0.744E-11 0.859E-11   0.419E-14 0.343E-14 0.284E-15   0.485E-26 -.646E-26 0.226E-25   -.187E-13 -.594E-14 -.129E-12
 
 
 POSITION                                       TOTAL-FORCE (eV/Angst)
 -----------------------------------------------------------------------------------
      0.00000      0.00000      0.00000         0.000000     -0.000000      0.000000
      1.42003      1.42003      1.42003        -0.000000      0.000000     -0.000000
 -----------------------------------------------------------------------------------
    total drift:                                0.000000      0.000000      0.000000


--------------------------------------------------------------------------------------------------------



  FREE ENERGIE OF THE ION-ELECTRON SYSTEM (eV)
  ---------------------------------------------------
  free  energy   TOTEN  =       -16.51548819 eV

  energy  without entropy=      -16.51548819  energy(sigma->0) =      -16.51548819
 


--------------------------------------------------------------------------------------------------------


    POTLOK:  cpu time    0.0154: real time    0.0158


--------------------------------------------------------------------------------------------------------


     LOOP+:  cpu time    6.2516: real time    6.2852
    4ORBIT:  cpu time    0.0000: real time    0.0000
 


 total charge     
 
# of ion       s       p       d       tot
------------------------------------------
    1        0.386   6.382   6.066  12.834
    2        0.386   6.382   6.066  12.834
--------------------------------------------------
tot          0.771  12.765  12.133  25.669
 


 magnetization (x)
 
# of ion       s       p       d       tot
------------------------------------------
    1       -0.006  -0.038   2.249   2.205
    2       -0.006  -0.038   2.249   2.205
--------------------------------------------------
tot         -0.012  -0.077   4.498   4.409
 
 BZINTS: Fermi energy:  9.541666; 28.000000 electrons
         Band energy:-400.255608;  BLOECHL correction: -0.054607

 total amount of memory used by VASP MPI-rank0    33608. kBytes
=======================================================================

   base      :      30000. kBytes
   nonlr-proj:        945. kBytes
   fftplans  :        478. kBytes
   grid      :       1141. kBytes
   one-center:         31. kBytes
   wavefun   :       1013. kBytes
 
  
  
 General timing and accounting informations for this job:
 ========================================================
  
                  Total CPU time used (sec):        7.475
                            User time (sec):        7.331
                          System time (sec):        0.144
                         Elapsed time (sec):        8.331
  
                   Maximum memory used (kb):       59696.
                   Average memory used (kb):           0.
  
                          Minor page faults:        14081
                          Major page faults:            0
                 Voluntary context switches:         1511
