       N       E                     dE             d eps       ncg     rms          rms(c)
DAV:   1     0.131195165482E+03    0.13120E+03   -0.92353E+03  8460   0.231E+03
DAV:   2    -0.737741365452E+01   -0.13857E+03   -0.12268E+03  7564   0.283E+02
DAV:   3    -0.198364910532E+02   -0.12459E+02   -0.11930E+02  7872   0.887E+01
DAV:   4    -0.204671882055E+02   -0.63070E+00   -0.61663E+00 11100   0.181E+01
DAV:   5    -0.204879725926E+02   -0.20784E-01   -0.20731E-01  9092   0.245E+00    0.185E+01
DAV:   6    -0.256967014830E+02   -0.52087E+01   -0.10049E+02 10264   0.108E+02    0.274E+01
DAV:   7    -0.209232197644E+02    0.47735E+01   -0.22917E+01  8628   0.817E+01    0.101E+01
DAV:   8    -0.209395642154E+02   -0.16344E-01   -0.13227E+00  9812   0.996E+00    0.482E+00
DAV:   9    -0.209201163086E+02    0.19448E-01   -0.16656E+00 10660   0.112E+01    0.264E+00
DAV:  10    -0.208636999981E+02    0.56416E-01   -0.22731E-01  9624   0.430E+00    0.952E-01
DAV:  11    -0.208601395987E+02    0.35604E-02   -0.14144E-02  9920   0.117E+00    0.785E-01
DAV:  12    -0.208598903742E+02    0.24922E-03   -0.24446E-02 10172   0.145E+00    0.363E-01
DAV:  13    -0.208601936450E+02   -0.30327E-03   -0.20274E-03  9588   0.292E-01    0.193E-01
DAV:  14    -0.208602935177E+02   -0.99873E-04   -0.14368E-03 10228   0.364E-01    0.787E-02
DAV:  15    -0.208602366201E+02    0.56898E-04   -0.18884E-04  9804   0.112E-01    0.402E-02
DAV:  16    -0.208602551767E+02   -0.18557E-04   -0.18573E-05 10152   0.359E-02    0.132E-02
DAV:  17    -0.208602564765E+02   -0.12998E-05   -0.26956E-06 11464   0.116E-02    0.465E-03
DAV:  18    -0.208602564800E+02   -0.34361E-08   -0.49148E-07  8392   0.474E-03
   1 F= -.20860256E+02 E0= -.20860256E+02  d E =0.000000E+00  mag=     6.9931
