       N       E                     dE             d eps       ncg     rms          rms(c)
DAV:   1     0.204696082467E+03    0.20470E+03   -0.17750E+04  3576   0.188E+03
DAV:   2    -0.103100000529E+02   -0.21501E+03   -0.20626E+03  3420   0.390E+02
DAV:   3    -0.162247438738E+02   -0.59147E+01   -0.59046E+01  3780   0.721E+01
DAV:   4    -0.162722806881E+02   -0.47537E-01   -0.47539E-01  3780   0.606E+00
DAV:   5    -0.162731510516E+02   -0.87036E-03   -0.87038E-03  3816   0.765E-01    0.250E+01
DAV:   6    -0.164551877176E+02   -0.18204E+00   -0.74933E+00  3420   0.395E+01    0.690E+00
DAV:   7    -0.165114067907E+02   -0.56219E-01   -0.61333E-01  3408   0.961E+00    0.430E+00
DAV:   8    -0.165213985801E+02   -0.99918E-02   -0.14881E-02  3744   0.145E+00    0.137E+00
DAV:   9    -0.165132099056E+02    0.81887E-02   -0.51276E-03  3588   0.868E-01    0.337E-01
DAV:  10    -0.165130364509E+02    0.17345E-03   -0.22484E-03  3432   0.609E-01    0.440E-02
DAV:  11    -0.165130955903E+02   -0.59139E-04   -0.48077E-05  3624   0.640E-02    0.242E-02
DAV:  12    -0.165131036391E+02   -0.80488E-05   -0.47891E-06  3804   0.219E-02    0.956E-03
DAV:  13    -0.165130968641E+02    0.67750E-05   -0.13312E-06  3528   0.113E-02    0.243E-03
DAV:  14    -0.165130953467E+02    0.15174E-05   -0.15099E-07  2688   0.323E-03    0.611E-04
DAV:  15    -0.165130953567E+02   -0.99799E-08   -0.11638E-08  1740   0.111E-03
   1 F= -.16513095E+02 E0= -.16513095E+02  d E =0.000000E+00  mag=     4.4055
