 vasp.5.4.4.18Apr17-6-g9f103f2a35 (build Apr 28 2018 00:24:27) complex          
  
 executed on             LinuxIFC date 2021.09.06  23:54:43
 running on   24 total cores
 distrk:  each k-point on   24 cores,    1 groups
 distr:  one band on NCORES_PER_BAND=   4 cores,    6 groups


--------------------------------------------------------------------------------------------------------


 INCAR:
 POTCAR:    PAW_PBE Fe_pv 02Aug2007               
 POTCAR:    PAW_PBE Fe_pv 02Aug2007               
   VRHFIN =Fe:  3pd7s1                                                          
   LEXCH  = PE                                                                  
   EATOM  =  2457.4239 eV,  180.6156 Ry                                         
                                                                                
   TITEL  = PAW_PBE Fe_pv 02Aug2007                                             
   LULTRA =        F    use ultrasoft PP ?                                      
   IUNSCR =        1    unscreen: 0-lin 1-nonlin 2-no                           
   RPACOR =    1.750    partial core radius                                     
   POMASS =   55.847; ZVAL   =   14.000    mass and valenz                      
   RCORE  =    2.200    outmost cutoff radius                                   
   RWIGS  =    2.200; RWIGS  =    1.164    wigner-seitz radius (au A)           
   ENMAX  =  293.238; ENMIN  =  219.928 eV                                      
   ICORE  =        3    local potential                                         
   LCOR   =        T    correct aug charges                                     
   LPAW   =        T    paw PP                                                  
   EAUG   =  578.342                                                            
   DEXC   =    0.000                                                            
   RMAX   =    2.249    core radius for proj-oper                               
   RAUG   =    1.300    factor for augmentation sphere                          
   RDEP   =    2.296    radius for radial grids                                 
   RDEPT  =    1.766    core radius for aug-charge                              
                                                                                
   Atomic configuration                                                         
    8 entries                                                                   
     n  l   j            E        occ.                                          
     1  0  0.50     -6993.8440   2.0000                                         
     2  0  0.50      -814.6047   2.0000                                         
     2  1  1.50      -693.3689   6.0000                                         
     3  0  0.50       -89.4732   2.0000                                         
     3  1  1.50       -55.6373   6.0000                                         
     3  2  2.50        -3.8151   7.0000                                         
     4  0  0.50        -4.2551   1.0000                                         
     4  3  2.50        -1.3606   0.0000                                         
   Description                                                                  
     l       E           TYP  RCUT    TYP  RCUT                                 
     1    -55.6372668     23  2.000                                             
     1     -5.4423304     23  2.000                                             
     2     -3.8151096     23  2.200                                             
     2     -5.1756922     23  2.200                                             
     0     -4.2550951     23  2.200                                             
     0     27.2116520     23  2.200                                             
     3     -1.3605826     23  2.200                                             
  local pseudopotential read in
  partial core-charges read in
  partial kinetic energy density read in
  atomic valenz-charges read in
  non local Contribution for L=           1  read in
    real space projection operators read in
  non local Contribution for L=           1  read in
    real space projection operators read in
  non local Contribution for L=           2  read in
    real space projection operators read in
  non local Contribution for L=           2  read in
    real space projection operators read in
  non local Contribution for L=           0  read in
    real space projection operators read in
  non local Contribution for L=           0  read in
    real space projection operators read in
    PAW grid and wavefunctions read in
 
   number of l-projection  operators is LMAX  =           6
   number of lm-projection operators is LMMAX =          18
 

 ----------------------------------------------------------------------------- 
|                                                                             |
|  ADVICE TO THIS USER RUNNING 'VASP/VAMP'   (HEAR YOUR MASTER'S VOICE ...):  |
|                                                                             |
|      You have a (more or less) 'small supercell' and for smaller cells      |
|      it is recommended  to use the reciprocal-space projection scheme!      |
|      The real space optimization is not  efficient for small cells and it   |
|      is also less accurate ...                                              |
|      Therefore set LREAL=.FALSE. in the  INCAR file                         |
|                                                                             |
 ----------------------------------------------------------------------------- 

 Optimization of the real space projectors (new method)

 maximal supplied QI-value         = 17.01
 optimisation between [QCUT,QGAM] = [ 11.57, 23.30] = [ 37.45,152.03] Ry 
 Optimized for a Real-space Cutoff    1.45 Angstroem

   l    n(q)    QCUT    max X(q) W(low)/X(q) W(high)/X(q)  e(spline) 
   1     10    11.565     4.267    0.91E-04    0.15E-03    0.13E-06
   1     10    11.565     5.750    0.14E-03    0.22E-03    0.20E-06
   2      9    11.565    53.656    0.13E-03    0.57E-04    0.16E-06
   2      9    11.565    49.521    0.13E-03    0.59E-04    0.16E-06
   0     10    11.565    31.246    0.61E-04    0.74E-05    0.89E-07
   0     10    11.565    12.201    0.44E-04    0.68E-05    0.74E-07
  PAW_PBE Fe_pv 02Aug2007               :
 energy of atom  1       EATOM=-2457.4239
 kinetic energy error for atom=    0.0062 (will be added to EATOM!!)
 
 
 POSCAR: Fe2                                     
  positions in direct lattice
  No initial velocities read in
 exchange correlation table for  LEXCH =        8
   RHO(1)=    0.500       N(1)  =     2000
   RHO(2)=  100.500       N(2)  =     4000
 


--------------------------------------------------------------------------------------------------------


 ion  position               nearest neighbor table
   1  0.000  0.000  0.000-   2 2.46   2 2.46   2 2.46   2 2.46   2 2.46   2 2.46   2 2.46   2 2.46

   2  0.500  0.500  0.500-   1 2.46   1 2.46   1 2.46   1 2.46   1 2.46   1 2.46   1 2.46   1 2.46

 
  LATTYP: Found a simple cubic cell.
 ALAT       =     2.8400520000
  
  Lattice vectors:
  
 A1 = (   2.8400520000,   0.0000000000,   0.0000000000)
 A2 = (   0.0000000000,   2.8400520000,   0.0000000000)
 A3 = (   0.0000000000,   0.0000000000,   2.8400520000)


Analysis of symmetry for initial positions (statically):
=====================================================================
 Subroutine PRICEL returns following result:
 
  LATTYP: Found a body centered cubic cell.
 ALAT       =     2.8400520000
  
  Lattice vectors:
  
 A1 = (   1.4200260000,   1.4200260000,   1.4200260000)
 A2 = (   1.4200260000,  -1.4200260000,  -1.4200260000)
 A3 = (  -1.4200260000,   1.4200260000,  -1.4200260000)
 
   2 primitive cells build up your supercell.
 

 Routine SETGRP: Setting up the symmetry group for a 
 simple cubic supercell.


 Subroutine GETGRP returns: Found 48 space group operations
 (whereof 48 operations were pure point group operations)
 out of a pool of 48 trial point group operations.


The static configuration has the point symmetry O_h .


Analysis of symmetry for dynamics (positions and initial velocities):
=====================================================================
 Subroutine PRICEL returns following result:
 
  LATTYP: Found a body centered cubic cell.
 ALAT       =     2.8400520000
  
  Lattice vectors:
  
 A1 = (   1.4200260000,   1.4200260000,   1.4200260000)
 A2 = (   1.4200260000,  -1.4200260000,  -1.4200260000)
 A3 = (  -1.4200260000,   1.4200260000,  -1.4200260000)
 
   2 primitive cells build up your supercell.
 

 Routine SETGRP: Setting up the symmetry group for a 
 simple cubic supercell.


 Subroutine GETGRP returns: Found 48 space group operations
 (whereof 48 operations were pure point group operations)
 out of a pool of 48 trial point group operations.


The dynamic configuration has the point symmetry O_h .


Analysis of structural, dynamic, and magnetic symmetry:
=====================================================================
 Subroutine PRICEL returns following result:
 
  LATTYP: Found a body centered cubic cell.
 ALAT       =     2.8400520000
  
  Lattice vectors:
  
 A1 = (   1.4200260000,   1.4200260000,   1.4200260000)
 A2 = (   1.4200260000,  -1.4200260000,  -1.4200260000)
 A3 = (  -1.4200260000,   1.4200260000,  -1.4200260000)
 
   2 primitive cells build up your supercell.
 

 Routine SETGRP: Setting up the symmetry group for a 
 simple cubic supercell.


 Subroutine GETGRP returns: Found 48 space group operations
 (whereof 48 operations were pure point group operations)
 out of a pool of 48 trial point group operations.


The magnetic configuration has the point symmetry O_h .


 Subroutine INISYM returns: Found 48 space group operations
 (whereof 48 operations are pure point group operations),
 and found     2 'primitive' translations

 
 
 KPOINTS: pymatgen with grid density = 2166 / numb

Automatic generation of k-mesh.
Space group operators:
 irot       det(A)        alpha          n_x          n_y          n_z        tau_x        tau_y        tau_z
    1     1.000000     0.000000     1.000000     0.000000     0.000000     0.000000     0.000000     0.000000
    2    -1.000000     0.000000     1.000000     0.000000     0.000000     0.000000     0.000000     0.000000
    3     1.000000   120.000000    -0.577350    -0.577350    -0.577350     0.000000     0.000000     0.000000
    4    -1.000000   120.000000    -0.577350    -0.577350    -0.577350     0.000000     0.000000     0.000000
    5     1.000000   120.000000     0.577350     0.577350     0.577350     0.000000     0.000000     0.000000
    6    -1.000000   120.000000     0.577350     0.577350     0.577350     0.000000     0.000000     0.000000
    7     1.000000    90.000000     0.000000     0.000000    -1.000000     0.000000     0.000000     0.000000
    8    -1.000000    90.000000     0.000000     0.000000    -1.000000     0.000000     0.000000     0.000000
    9     1.000000   180.000000     0.000000     0.707107     0.707107     0.000000     0.000000     0.000000
   10    -1.000000   180.000000     0.000000     0.707107     0.707107     0.000000     0.000000     0.000000
   11     1.000000    90.000000     0.000000     1.000000     0.000000     0.000000     0.000000     0.000000
   12    -1.000000    90.000000     0.000000     1.000000     0.000000     0.000000     0.000000     0.000000
   13     1.000000   180.000000     0.000000     0.000000     1.000000     0.000000     0.000000     0.000000
   14    -1.000000   180.000000     0.000000     0.000000     1.000000     0.000000     0.000000     0.000000
   15     1.000000   120.000000    -0.577350     0.577350     0.577350     0.000000     0.000000     0.000000
   16    -1.000000   120.000000    -0.577350     0.577350     0.577350     0.000000     0.000000     0.000000
   17     1.000000   120.000000    -0.577350     0.577350    -0.577350     0.000000     0.000000     0.000000
   18    -1.000000   120.000000    -0.577350     0.577350    -0.577350     0.000000     0.000000     0.000000
   19     1.000000    90.000000     0.000000     0.000000     1.000000     0.000000     0.000000     0.000000
   20    -1.000000    90.000000     0.000000     0.000000     1.000000     0.000000     0.000000     0.000000
   21     1.000000    90.000000    -1.000000     0.000000     0.000000     0.000000     0.000000     0.000000
   22    -1.000000    90.000000    -1.000000     0.000000     0.000000     0.000000     0.000000     0.000000
   23     1.000000   180.000000     0.707107     0.000000     0.707107     0.000000     0.000000     0.000000
   24    -1.000000   180.000000     0.707107     0.000000     0.707107     0.000000     0.000000     0.000000
   25     1.000000   120.000000     0.577350    -0.577350     0.577350     0.000000     0.000000     0.000000
   26    -1.000000   120.000000     0.577350    -0.577350     0.577350     0.000000     0.000000     0.000000
   27     1.000000   120.000000    -0.577350    -0.577350     0.577350     0.000000     0.000000     0.000000
   28    -1.000000   120.000000    -0.577350    -0.577350     0.577350     0.000000     0.000000     0.000000
   29     1.000000   180.000000     1.000000     0.000000     0.000000     0.000000     0.000000     0.000000
   30    -1.000000   180.000000     1.000000     0.000000     0.000000     0.000000     0.000000     0.000000
   31     1.000000    90.000000     0.000000    -1.000000     0.000000     0.000000     0.000000     0.000000
   32    -1.000000    90.000000     0.000000    -1.000000     0.000000     0.000000     0.000000     0.000000
   33     1.000000   180.000000     0.707107     0.707107     0.000000     0.000000     0.000000     0.000000
   34    -1.000000   180.000000     0.707107     0.707107     0.000000     0.000000     0.000000     0.000000
   35     1.000000    90.000000     1.000000     0.000000     0.000000     0.000000     0.000000     0.000000
   36    -1.000000    90.000000     1.000000     0.000000     0.000000     0.000000     0.000000     0.000000
   37     1.000000   120.000000     0.577350    -0.577350    -0.577350     0.000000     0.000000     0.000000
   38    -1.000000   120.000000     0.577350    -0.577350    -0.577350     0.000000     0.000000     0.000000
   39     1.000000   180.000000     0.000000     1.000000     0.000000     0.000000     0.000000     0.000000
   40    -1.000000   180.000000     0.000000     1.000000     0.000000     0.000000     0.000000     0.000000
   41     1.000000   120.000000     0.577350     0.577350    -0.577350     0.000000     0.000000     0.000000
   42    -1.000000   120.000000     0.577350     0.577350    -0.577350     0.000000     0.000000     0.000000
   43     1.000000   180.000000     0.000000    -0.707107     0.707107     0.000000     0.000000     0.000000
   44    -1.000000   180.000000     0.000000    -0.707107     0.707107     0.000000     0.000000     0.000000
   45     1.000000   180.000000     0.707107    -0.707107     0.000000     0.000000     0.000000     0.000000
   46    -1.000000   180.000000     0.707107    -0.707107     0.000000     0.000000     0.000000     0.000000
   47     1.000000   180.000000     0.707107     0.000000    -0.707107     0.000000     0.000000     0.000000
   48    -1.000000   180.000000     0.707107     0.000000    -0.707107     0.000000     0.000000     0.000000
 
 Subroutine IBZKPT returns following result:
 ===========================================
 
 Found     35 irreducible k-points:
 
 Following reciprocal coordinates:
            Coordinates               Weight
  0.050000  0.050000  0.050000      8.000000
  0.150000  0.050000  0.050000     24.000000
  0.250000  0.050000  0.050000     24.000000
  0.350000  0.050000  0.050000     24.000000
  0.450000  0.050000  0.050000     24.000000
  0.150000  0.150000  0.050000     24.000000
  0.250000  0.150000  0.050000     48.000000
  0.350000  0.150000  0.050000     48.000000
  0.450000  0.150000  0.050000     48.000000
  0.250000  0.250000  0.050000     24.000000
  0.350000  0.250000  0.050000     48.000000
  0.450000  0.250000  0.050000     48.000000
  0.350000  0.350000  0.050000     24.000000
  0.450000  0.350000  0.050000     48.000000
  0.450000  0.450000  0.050000     24.000000
  0.150000  0.150000  0.150000      8.000000
  0.250000  0.150000  0.150000     24.000000
  0.350000  0.150000  0.150000     24.000000
  0.450000  0.150000  0.150000     24.000000
  0.250000  0.250000  0.150000     24.000000
  0.350000  0.250000  0.150000     48.000000
  0.450000  0.250000  0.150000     48.000000
  0.350000  0.350000  0.150000     24.000000
  0.450000  0.350000  0.150000     48.000000
  0.450000  0.450000  0.150000     24.000000
  0.250000  0.250000  0.250000      8.000000
  0.350000  0.250000  0.250000     24.000000
  0.450000  0.250000  0.250000     24.000000
  0.350000  0.350000  0.250000     24.000000
  0.450000  0.350000  0.250000     48.000000
  0.450000  0.450000  0.250000     24.000000
  0.350000  0.350000  0.350000      8.000000
  0.450000  0.350000  0.350000     24.000000
  0.450000  0.450000  0.350000     24.000000
  0.450000  0.450000  0.450000      8.000000
 
 Following cartesian coordinates:
            Coordinates               Weight
  0.017605  0.017605  0.017605      8.000000
  0.052816  0.017605  0.017605     24.000000
  0.088027  0.017605  0.017605     24.000000
  0.123237  0.017605  0.017605     24.000000
  0.158448  0.017605  0.017605     24.000000
  0.052816  0.052816  0.017605     24.000000
  0.088027  0.052816  0.017605     48.000000
  0.123237  0.052816  0.017605     48.000000
  0.158448  0.052816  0.017605     48.000000
  0.088027  0.088027  0.017605     24.000000
  0.123237  0.088027  0.017605     48.000000
  0.158448  0.088027  0.017605     48.000000
  0.123237  0.123237  0.017605     24.000000
  0.158448  0.123237  0.017605     48.000000
  0.158448  0.158448  0.017605     24.000000
  0.052816  0.052816  0.052816      8.000000
  0.088027  0.052816  0.052816     24.000000
  0.123237  0.052816  0.052816     24.000000
  0.158448  0.052816  0.052816     24.000000
  0.088027  0.088027  0.052816     24.000000
  0.123237  0.088027  0.052816     48.000000
  0.158448  0.088027  0.052816     48.000000
  0.123237  0.123237  0.052816     24.000000
  0.158448  0.123237  0.052816     48.000000
  0.158448  0.158448  0.052816     24.000000
  0.088027  0.088027  0.088027      8.000000
  0.123237  0.088027  0.088027     24.000000
  0.158448  0.088027  0.088027     24.000000
  0.123237  0.123237  0.088027     24.000000
  0.158448  0.123237  0.088027     48.000000
  0.158448  0.158448  0.088027     24.000000
  0.123237  0.123237  0.123237      8.000000
  0.158448  0.123237  0.123237     24.000000
  0.158448  0.158448  0.123237     24.000000
  0.158448  0.158448  0.158448      8.000000
 
 TETIRR: Found    466 inequivalent tetrahedra from     6000


--------------------------------------------------------------------------------------------------------




 Dimension of arrays:
   k-points           NKPTS =     35   k-points in BZ     NKDIM =     35   number of bands    NBANDS=     24
   number of dos      NEDOS =    301   number of ions     NIONS =      2
   non local maximal  LDIM  =      6   non local SUM 2l+1 LMDIM =     18
   total plane-waves  NPLWV =  13824
   max r-space proj   IRMAX =   7689   max aug-charges    IRDMAX=  18070
   dimension x,y,z NGX =    24 NGY =   24 NGZ =   24
   dimension x,y,z NGXF=    48 NGYF=   48 NGZF=   48
   support grid    NGXF=    48 NGYF=   48 NGZF=   48
   ions per type =               2
   NGX,Y,Z   is equivalent  to a cutoff of  14.05, 14.05, 14.05 a.u.
   NGXF,Y,Z  is equivalent  to a cutoff of  28.10, 28.10, 28.10 a.u.

 SYSTEM =  unknown system                          
 POSCAR =  Fe2                                     

 Startparameter for this run:
   NWRITE =      2    write-flag & timer
   PREC   = accura    normal or accurate (medium, high low for compatibility)
   ISTART =      0    job   : 0-new  1-cont  2-samecut
   ICHARG =      2    charge: 1-file 2-atom 10-const
   ISPIN  =      2    spin polarized calculation?
   LNONCOLLINEAR =      F non collinear calculations
   LSORBIT =      F    spin-orbit coupling
   INIWAV =      1    electr: 0-lowe 1-rand  2-diag
   LASPH  =      F    aspherical Exc in radial PAW
   METAGGA=      F    non-selfconsistent MetaGGA calc.

 Electronic Relaxation 1
   ENCUT  =  520.0 eV  38.22 Ry    6.18 a.u.   5.28  5.28  5.28*2*pi/ulx,y,z
   ENINI  =  520.0     initial cutoff
   ENAUG  =  578.3 eV  augmentation charge cutoff
   NELM   =    100;   NELMIN=  2; NELMDL= -5     # of ELM steps 
   EDIFF  = 0.1E-06   stopping-criterion for ELM
   LREAL  =      T    real-space projection
   NLSPLINE    = F    spline interpolate recip. space projectors
   LCOMPAT=      F    compatible to vasp.4.4
   GGA_COMPAT  = T    GGA compatible to vasp.4.4-vasp.4.6
   LMAXPAW     = -100 max onsite density
   LMAXMIX     =    2 max onsite mixed and CHGCAR
   VOSKOWN=      0    Vosko Wilk Nusair interpolation
   ROPT   =   -0.00025
 Ionic relaxation
   EDIFFG = 0.1E-05   stopping-criterion for IOM
   NSW    =      0    number of steps for IOM
   NBLOCK =      1;   KBLOCK =      1    inner block; outer block 
   IBRION =     -1    ionic relax: 0-MD 1-quasi-New 2-CG
   NFREE  =      0    steps in history (QN), initial steepest desc. (CG)
   ISIF   =      3    stress and relaxation
   IWAVPR =     10    prediction:  0-non 1-charg 2-wave 3-comb
   ISYM   =      2    0-nonsym 1-usesym 2-fastsym
   LCORR  =      T    Harris-Foulkes like correction to forces

   POTIM  = 0.5000    time-step for ionic-motion
   TEIN   =    0.0    initial temperature
   TEBEG  =    0.0;   TEEND  =   0.0 temperature during run
   SMASS  =  -3.00    Nose mass-parameter (am)
   estimated Nose-frequenzy (Omega)   =  0.10E-29 period in steps =****** mass=  -0.184E-27a.u.
   SCALEE = 1.0000    scale energy and forces
   NPACO  =    256;   APACO  = 16.0  distance and # of slots for P.C.
   PSTRESS=    0.0 pullay stress

  Mass of Ions in am
   POMASS =  55.85
  Ionic Valenz
   ZVAL   =  14.00
  Atomic Wigner-Seitz radii
   RWIGS  =  -1.00
  virtual crystal weights 
   VCA    =   1.00
   NELECT =      28.0000    total number of electrons
   NUPDOWN=      -1.0000    fix difference up-down

 DOS related values:
   EMIN   =  10.00;   EMAX   =-10.00  energy-range for DOS
   EFERMI =   0.00
   ISMEAR =    -5;   SIGMA  =   0.05  broadening in eV -4-tet -1-fermi 0-gaus

 Electronic relaxation 2 (details)
   IALGO  =     38    algorithm
   LDIAG  =      T    sub-space diagonalisation (order eigenvalues)
   LSUBROT=      F    optimize rotation matrix (better conditioning)
   TURBO    =      0    0=normal 1=particle mesh
   IRESTART =      0    0=no restart 2=restart with 2 vectors
   NREBOOT  =      0    no. of reboots
   NMIN     =      0    reboot dimension
   EREF     =   0.00    reference energy to select bands
   IMIX   =      4    mixing-type and parameters
     AMIX     =   0.40;   BMIX     =  1.00
     AMIX_MAG =   1.60;   BMIX_MAG =  1.00
     AMIN     =   0.10
     WC   =   100.;   INIMIX=   1;  MIXPRE=   1;  MAXMIX= -45

 Intra band minimization:
   WEIMIN = 0.0000     energy-eigenvalue tresh-hold
   EBREAK =  0.10E-08  absolut break condition
   DEPER  =   0.30     relativ break condition  

   TIME   =   0.40     timestep for ELM

  volume/ion in A,a.u.               =      11.45        77.29
  Fermi-wavevector in a.u.,A,eV,Ry     =   1.750389  3.307755 41.686364  3.063861
  Thomas-Fermi vector in A             =   2.821117
 
 Write flags
   LWAVE        =      F    write WAVECAR
   LDOWNSAMPLE  =      F    k-point downsampling of WAVECAR
   LCHARG       =      F    write CHGCAR
   LVTOT        =      F    write LOCPOT, total local potential
   LVHAR        =      F    write LOCPOT, Hartree potential only
   LELF         =      F    write electronic localiz. function (ELF)
   LORBIT       =     11    0 simple, 1 ext, 2 COOP (PROOUT), +10 PAW based schemes


 Dipole corrections
   LMONO  =      F    monopole corrections only (constant potential shift)
   LDIPOL =      F    correct potential (dipole corrections)
   IDIPOL =      0    1-x, 2-y, 3-z, 4-all directions 
   EPSILON=  1.0000000 bulk dielectric constant

 Exchange correlation treatment:
   GGA     =    --    GGA type
   LEXCH   =     8    internal setting for exchange type
   VOSKOWN=      0    Vosko Wilk Nusair interpolation
   LHFCALC =     F    Hartree Fock is set to
   LHFONE  =     F    Hartree Fock one center treatment
   AEXX    =    0.0000 exact exchange contribution

 Linear response parameters
   LEPSILON=     F    determine dielectric tensor
   LRPA    =     F    only Hartree local field effects (RPA)
   LNABLA  =     F    use nabla operator in PAW spheres
   LVEL    =     F    velocity operator in full k-point grid
   LINTERFAST=   F  fast interpolation
   KINTER  =     0    interpolate to denser k-point grid
   CSHIFT  =0.1000    complex shift for real part using Kramers Kronig
   OMEGAMAX=  -1.0    maximum frequency
   DEG_THRESHOLD= 0.2000000E-02 threshold for treating states as degnerate
   RTIME   =   -0.100 relaxation time in fs
  (WPLASMAI=    0.000 imaginary part of plasma frequency in eV, 0.658/RTIME)
   DFIELD  = 0.0000000 0.0000000 0.0000000 field for delta impulse in time
 
 Orbital magnetization related:
   ORBITALMAG=     F  switch on orbital magnetization
   LCHIMAG   =     F  perturbation theory with respect to B field
   DQ        =  0.001000  dq finite difference perturbation B field
   LLRAUG    =     F  two centre corrections for induced B field



--------------------------------------------------------------------------------------------------------


 Static calculation
 charge density and potential will be updated during run
 spin polarized calculation
 Variant of blocked Davidson
 Davidson routine will perform the subspace rotation
 perform sub-space diagonalisation
    after iterative eigenvector-optimisation
 modified Broyden-mixing scheme, WC =      100.0
 initial mixing is a Kerker type mixing with AMIX =  0.4000 and BMIX =      1.0000
 Hartree-type preconditioning will be used
 using additional bands           10
 real space projection scheme for non local part
 use partial core corrections
 calculate Harris-corrections to forces 
   (improved forces if not selfconsistent)
 use gradient corrections 
 use of overlap-Matrix (Vanderbilt PP)
 Fermi weights with tetrahedron method with Bloechl corrections


--------------------------------------------------------------------------------------------------------


  energy-cutoff  :      520.00
  volume of cell :       22.91
      direct lattice vectors                 reciprocal lattice vectors
     2.840052000  0.000000000  0.000000000     0.352106229  0.000000000  0.000000000
     0.000000000  2.840052000  0.000000000     0.000000000  0.352106229  0.000000000
     0.000000000  0.000000000  2.840052000     0.000000000  0.000000000  0.352106229

  length of vectors
     2.840052000  2.840052000  2.840052000     0.352106229  0.352106229  0.352106229


 
 k-points in units of 2pi/SCALE and weight: pymatgen with grid density = 2166 / numb
   0.01760531  0.01760531  0.01760531       0.008
   0.05281593  0.01760531  0.01760531       0.024
   0.08802656  0.01760531  0.01760531       0.024
   0.12323718  0.01760531  0.01760531       0.024
   0.15844780  0.01760531  0.01760531       0.024
   0.05281593  0.05281593  0.01760531       0.024
   0.08802656  0.05281593  0.01760531       0.048
   0.12323718  0.05281593  0.01760531       0.048
   0.15844780  0.05281593  0.01760531       0.048
   0.08802656  0.08802656  0.01760531       0.024
   0.12323718  0.08802656  0.01760531       0.048
   0.15844780  0.08802656  0.01760531       0.048
   0.12323718  0.12323718  0.01760531       0.024
   0.15844780  0.12323718  0.01760531       0.048
   0.15844780  0.15844780  0.01760531       0.024
   0.05281593  0.05281593  0.05281593       0.008
   0.08802656  0.05281593  0.05281593       0.024
   0.12323718  0.05281593  0.05281593       0.024
   0.15844780  0.05281593  0.05281593       0.024
   0.08802656  0.08802656  0.05281593       0.024
   0.12323718  0.08802656  0.05281593       0.048
   0.15844780  0.08802656  0.05281593       0.048
   0.12323718  0.12323718  0.05281593       0.024
   0.15844780  0.12323718  0.05281593       0.048
   0.15844780  0.15844780  0.05281593       0.024
   0.08802656  0.08802656  0.08802656       0.008
   0.12323718  0.08802656  0.08802656       0.024
   0.15844780  0.08802656  0.08802656       0.024
   0.12323718  0.12323718  0.08802656       0.024
   0.15844780  0.12323718  0.08802656       0.048
   0.15844780  0.15844780  0.08802656       0.024
   0.12323718  0.12323718  0.12323718       0.008
   0.15844780  0.12323718  0.12323718       0.024
   0.15844780  0.15844780  0.12323718       0.024
   0.15844780  0.15844780  0.15844780       0.008
 
 k-points in reciprocal lattice and weights: pymatgen with grid density = 2166 / numb
   0.05000000  0.05000000  0.05000000       0.008
   0.15000000  0.05000000  0.05000000       0.024
   0.25000000  0.05000000  0.05000000       0.024
   0.35000000  0.05000000  0.05000000       0.024
   0.45000000  0.05000000  0.05000000       0.024
   0.15000000  0.15000000  0.05000000       0.024
   0.25000000  0.15000000  0.05000000       0.048
   0.35000000  0.15000000  0.05000000       0.048
   0.45000000  0.15000000  0.05000000       0.048
   0.25000000  0.25000000  0.05000000       0.024
   0.35000000  0.25000000  0.05000000       0.048
   0.45000000  0.25000000  0.05000000       0.048
   0.35000000  0.35000000  0.05000000       0.024
   0.45000000  0.35000000  0.05000000       0.048
   0.45000000  0.45000000  0.05000000       0.024
   0.15000000  0.15000000  0.15000000       0.008
   0.25000000  0.15000000  0.15000000       0.024
   0.35000000  0.15000000  0.15000000       0.024
   0.45000000  0.15000000  0.15000000       0.024
   0.25000000  0.25000000  0.15000000       0.024
   0.35000000  0.25000000  0.15000000       0.048
   0.45000000  0.25000000  0.15000000       0.048
   0.35000000  0.35000000  0.15000000       0.024
   0.45000000  0.35000000  0.15000000       0.048
   0.45000000  0.45000000  0.15000000       0.024
   0.25000000  0.25000000  0.25000000       0.008
   0.35000000  0.25000000  0.25000000       0.024
   0.45000000  0.25000000  0.25000000       0.024
   0.35000000  0.35000000  0.25000000       0.024
   0.45000000  0.35000000  0.25000000       0.048
   0.45000000  0.45000000  0.25000000       0.024
   0.35000000  0.35000000  0.35000000       0.008
   0.45000000  0.35000000  0.35000000       0.024
   0.45000000  0.45000000  0.35000000       0.024
   0.45000000  0.45000000  0.45000000       0.008
 
 position of ions in fractional coordinates (direct lattice) 
   0.00000000  0.00000000  0.00000000
   0.50000000  0.50000000  0.50000000
 
 position of ions in cartesian coordinates  (Angst):
   0.00000000  0.00000000  0.00000000
   1.42002600  1.42002600  1.42002600
 


--------------------------------------------------------------------------------------------------------


 k-point  1 :   0.0500 0.0500 0.0500  plane waves:     618
 k-point  2 :   0.1500 0.0500 0.0500  plane waves:     622
 k-point  3 :   0.2500 0.0500 0.0500  plane waves:     627
 k-point  4 :   0.3500 0.0500 0.0500  plane waves:     622
 k-point  5 :   0.4500 0.0500 0.0500  plane waves:     617
 k-point  6 :   0.1500 0.1500 0.0500  plane waves:     622
 k-point  7 :   0.2500 0.1500 0.0500  plane waves:     621
 k-point  8 :   0.3500 0.1500 0.0500  plane waves:     618
 k-point  9 :   0.4500 0.1500 0.0500  plane waves:     613
 k-point 10 :   0.2500 0.2500 0.0500  plane waves:     618
 k-point 11 :   0.3500 0.2500 0.0500  plane waves:     616
 k-point 12 :   0.4500 0.2500 0.0500  plane waves:     614
 k-point 13 :   0.3500 0.3500 0.0500  plane waves:     612
 k-point 14 :   0.4500 0.3500 0.0500  plane waves:     612
 k-point 15 :   0.4500 0.4500 0.0500  plane waves:     616
 k-point 16 :   0.1500 0.1500 0.1500  plane waves:     621
 k-point 17 :   0.2500 0.1500 0.1500  plane waves:     616
 k-point 18 :   0.3500 0.1500 0.1500  plane waves:     620
 k-point 19 :   0.4500 0.1500 0.1500  plane waves:     618
 k-point 20 :   0.2500 0.2500 0.1500  plane waves:     616
 k-point 21 :   0.3500 0.2500 0.1500  plane waves:     613
 k-point 22 :   0.4500 0.2500 0.1500  plane waves:     611
 k-point 23 :   0.3500 0.3500 0.1500  plane waves:     613
 k-point 24 :   0.4500 0.3500 0.1500  plane waves:     615
 k-point 25 :   0.4500 0.4500 0.1500  plane waves:     618
 k-point 26 :   0.2500 0.2500 0.2500  plane waves:     612
 k-point 27 :   0.3500 0.2500 0.2500  plane waves:     610
 k-point 28 :   0.4500 0.2500 0.2500  plane waves:     614
 k-point 29 :   0.3500 0.3500 0.2500  plane waves:     618
 k-point 30 :   0.4500 0.3500 0.2500  plane waves:     619
 k-point 31 :   0.4500 0.4500 0.2500  plane waves:     621
 k-point 32 :   0.3500 0.3500 0.3500  plane waves:     624
 k-point 33 :   0.4500 0.3500 0.3500  plane waves:     618
 k-point 34 :   0.4500 0.4500 0.3500  plane waves:     623
 k-point 35 :   0.4500 0.4500 0.4500  plane waves:     624

 maximum and minimum number of plane-waves per node :       161      148

 maximum number of plane-waves:       627
 maximum index in each direction: 
   IXMAX=    5   IYMAX=    5   IZMAX=    5
   IXMIN=   -5   IYMIN=   -5   IZMIN=   -5


 real space projection operators:
  total allocation   :       2092.78 KBytes
  max/ min on nodes  :        524.81        519.47


 parallel 3D FFT for wavefunctions:
    minimum data exchange during FFTs selected (reduces bandwidth)
 parallel 3D FFT for charge:
    minimum data exchange during FFTs selected (reduces bandwidth)


 total amount of memory used by VASP MPI-rank0    32620. kBytes
=======================================================================

   base      :      30000. kBytes
   nonlr-proj:        899. kBytes
   fftplans  :        261. kBytes
   grid      :        623. kBytes
   one-center:         31. kBytes
   wavefun   :        806. kBytes
 
     INWAV:  cpu time    0.0000: real time    0.0001
 Broyden mixing: mesh for mixing (old mesh)
   NGX = 11   NGY = 11   NGZ = 11
  (NGX  = 48   NGY  = 48   NGZ  = 48)
  gives a total of   1331 points

 initial charge density was supplied:
 charge density of overlapping atoms calculated
 number of electron      28.0000000 magnetization      10.0000000
 keeping initial charge density in first step


--------------------------------------------------------------------------------------------------------


 Maximum index for non-local projection operator         1847
 Maximum index for augmentation-charges          805 (set IRDMAX)


--------------------------------------------------------------------------------------------------------


 First call to EWALD:  gamma=   0.624
 Maximum number of real-space cells 3x 3x 3
 Maximum number of reciprocal cells 3x 3x 3

    FEWALD:  cpu time    0.0012: real time    0.0013


--------------------------------------- Iteration      1(   1)  ---------------------------------------


    POTLOK:  cpu time    0.0084: real time    0.0127
    SETDIJ:  cpu time    0.0062: real time    0.0062
     EDDAV:  cpu time    0.4716: real time    0.4774
 BZINTS: Fermi energy: 19.934686; 28.000000 electrons
         Band energy:-117.722128;  BLOECHL correction: -0.245563
       DOS:  cpu time    0.0352: real time    0.0353
    --------------------------------------------
      LOOP:  cpu time    0.5214: real time    0.5316

 eigenvalue-minimisations  :  3576
 total energy-change (2. order) : 0.2046961E+03  (-0.1775008E+04)
 number of electron      28.0000000 magnetization      10.0000000
 augmentation part       28.0000000 magnetization      10.0000000

 Free energy of the ion-electron system (eV)
  ---------------------------------------------------
  alpha Z        PSCENC =       218.87048721
  Ewald energy   TEWEN  =     -3616.56080017
  -Hartree energ DENC   =     -1162.86386254
  -exchange      EXHF   =         0.00000000
  -V(xc)+E(xc)   XCENC  =       147.54621923
  PAW double counting   =      3997.93860218    -4177.34792201
  entropy T*S    EENTRO =         0.00000000
  eigenvalues    EBANDS =      -117.72212820
  atomic energy  EATOM  =      4914.83548677
  Solvation  Ediel_sol  =         0.00000000
  ---------------------------------------------------
  free energy    TOTEN  =       204.69608247 eV

  energy without entropy =      204.69608247  energy(sigma->0) =      204.69608247


--------------------------------------------------------------------------------------------------------




--------------------------------------- Iteration      1(   2)  ---------------------------------------


     EDDAV:  cpu time    0.4498: real time    0.4510
 BZINTS: Fermi energy: 12.170155; 28.000000 electrons
         Band energy:-332.728211;  BLOECHL correction: -0.072240
       DOS:  cpu time    0.0344: real time    0.0345
    --------------------------------------------
      LOOP:  cpu time    0.4842: real time    0.4855

 eigenvalue-minimisations  :  3420
 total energy-change (2. order) :-0.2150061E+03  (-0.2062631E+03)
 number of electron      28.0000000 magnetization      10.0000000
 augmentation part       28.0000000 magnetization      10.0000000

 Free energy of the ion-electron system (eV)
  ---------------------------------------------------
  alpha Z        PSCENC =       218.87048721
  Ewald energy   TEWEN  =     -3616.56080017
  -Hartree energ DENC   =     -1162.86386254
  -exchange      EXHF   =         0.00000000
  -V(xc)+E(xc)   XCENC  =       147.54621923
  PAW double counting   =      3997.93860218    -4177.34792201
  entropy T*S    EENTRO =         0.00000000
  eigenvalues    EBANDS =      -332.72821072
  atomic energy  EATOM  =      4914.83548677
  Solvation  Ediel_sol  =         0.00000000
  ---------------------------------------------------
  free energy    TOTEN  =       -10.31000005 eV

  energy without entropy =      -10.31000005  energy(sigma->0) =      -10.31000005


--------------------------------------------------------------------------------------------------------




--------------------------------------- Iteration      1(   3)  ---------------------------------------


     EDDAV:  cpu time    0.4886: real time    0.4905
 BZINTS: Fermi energy: 12.037347; 28.000000 electrons
         Band energy:-338.642955;  BLOECHL correction: -0.071286
       DOS:  cpu time    0.0343: real time    0.0343
    --------------------------------------------
      LOOP:  cpu time    0.5229: real time    0.5249

 eigenvalue-minimisations  :  3780
 total energy-change (2. order) :-0.5914744E+01  (-0.5904596E+01)
 number of electron      28.0000000 magnetization      10.0000000
 augmentation part       28.0000000 magnetization      10.0000000

 Free energy of the ion-electron system (eV)
  ---------------------------------------------------
  alpha Z        PSCENC =       218.87048721
  Ewald energy   TEWEN  =     -3616.56080017
  -Hartree energ DENC   =     -1162.86386254
  -exchange      EXHF   =         0.00000000
  -V(xc)+E(xc)   XCENC  =       147.54621923
  PAW double counting   =      3997.93860218    -4177.34792201
  entropy T*S    EENTRO =         0.00000000
  eigenvalues    EBANDS =      -338.64295454
  atomic energy  EATOM  =      4914.83548677
  Solvation  Ediel_sol  =         0.00000000
  ---------------------------------------------------
  free energy    TOTEN  =       -16.22474387 eV

  energy without entropy =      -16.22474387  energy(sigma->0) =      -16.22474387


--------------------------------------------------------------------------------------------------------




--------------------------------------- Iteration      1(   4)  ---------------------------------------


     EDDAV:  cpu time    0.4831: real time    0.4844
 BZINTS: Fermi energy: 12.037007; 28.000000 electrons
         Band energy:-338.690491;  BLOECHL correction: -0.071285
       DOS:  cpu time    0.0342: real time    0.0343
    --------------------------------------------
      LOOP:  cpu time    0.5173: real time    0.5187

 eigenvalue-minimisations  :  3780
 total energy-change (2. order) :-0.4753681E-01  (-0.4753926E-01)
 number of electron      28.0000000 magnetization      10.0000000
 augmentation part       28.0000000 magnetization      10.0000000

 Free energy of the ion-electron system (eV)
  ---------------------------------------------------
  alpha Z        PSCENC =       218.87048721
  Ewald energy   TEWEN  =     -3616.56080017
  -Hartree energ DENC   =     -1162.86386254
  -exchange      EXHF   =         0.00000000
  -V(xc)+E(xc)   XCENC  =       147.54621923
  PAW double counting   =      3997.93860218    -4177.34792201
  entropy T*S    EENTRO =         0.00000000
  eigenvalues    EBANDS =      -338.69049136
  atomic energy  EATOM  =      4914.83548677
  Solvation  Ediel_sol  =         0.00000000
  ---------------------------------------------------
  free energy    TOTEN  =       -16.27228069 eV

  energy without entropy =      -16.27228069  energy(sigma->0) =      -16.27228069


--------------------------------------------------------------------------------------------------------




--------------------------------------- Iteration      1(   5)  ---------------------------------------


     EDDAV:  cpu time    0.4876: real time    0.4889
 BZINTS: Fermi energy: 12.037006; 28.000000 electrons
         Band energy:-338.691362;  BLOECHL correction: -0.071285
       DOS:  cpu time    0.0342: real time    0.0343
    CHARGE:  cpu time    0.0181: real time    0.0182
    MIXING:  cpu time    0.0006: real time    0.0007
    --------------------------------------------
      LOOP:  cpu time    0.5406: real time    0.5421

 eigenvalue-minimisations  :  3816
 total energy-change (2. order) :-0.8703636E-03  (-0.8703773E-03)
 number of electron      28.0000000 magnetization       4.3578557
 augmentation part       15.9046887 magnetization       2.8338968

 Broyden mixing:
  rms(total) = 0.24980E+01    rms(broyden)= 0.24979E+01
  rms(prec ) = 0.39505E+01
  weight for this iteration     100.00

 Free energy of the ion-electron system (eV)
  ---------------------------------------------------
  alpha Z        PSCENC =       218.87048721
  Ewald energy   TEWEN  =     -3616.56080017
  -Hartree energ DENC   =     -1162.86386254
  -exchange      EXHF   =         0.00000000
  -V(xc)+E(xc)   XCENC  =       147.54621923
  PAW double counting   =      3997.93860218    -4177.34792201
  entropy T*S    EENTRO =         0.00000000
  eigenvalues    EBANDS =      -338.69136172
  atomic energy  EATOM  =      4914.83548677
  Solvation  Ediel_sol  =         0.00000000
  ---------------------------------------------------
  free energy    TOTEN  =       -16.27315105 eV

  energy without entropy =      -16.27315105  energy(sigma->0) =      -16.27315105


--------------------------------------------------------------------------------------------------------




--------------------------------------- Iteration      1(   6)  ---------------------------------------


    POTLOK:  cpu time    0.0060: real time    0.0061
    SETDIJ:  cpu time    0.0052: real time    0.0052
     EDDAV:  cpu time    0.4431: real time    0.4442
 BZINTS: Fermi energy:  9.266256; 28.000000 electrons
         Band energy:-409.569361;  BLOECHL correction: -0.036187
       DOS:  cpu time    0.0348: real time    0.0349
    CHARGE:  cpu time    0.0147: real time    0.0148
    MIXING:  cpu time    0.0005: real time    0.0005
    --------------------------------------------
      LOOP:  cpu time    0.5043: real time    0.5056

 eigenvalue-minimisations  :  3420
 total energy-change (2. order) :-0.1820367E+00  (-0.7493263E+00)
 number of electron      27.9999999 magnetization       4.5319652
 augmentation part       17.0679531 magnetization       3.5500071

 Broyden mixing:
  rms(total) = 0.69027E+00    rms(broyden)= 0.69016E+00
  rms(prec ) = 0.86576E+00
  weight for this iteration     100.00

 eigenvalues of (default mixing * dielectric matrix)
  average eigenvalue GAMMA=   0.8373
  0.8373

 Free energy of the ion-electron system (eV)
  ---------------------------------------------------
  alpha Z        PSCENC =       218.87048721
  Ewald energy   TEWEN  =     -3616.56080017
  -Hartree energ DENC   =     -1089.09010025
  -exchange      EXHF   =         0.00000000
  -V(xc)+E(xc)   XCENC  =       140.63935874
  PAW double counting   =      4113.65161305    -4289.23187201
  entropy T*S    EENTRO =         0.00000000
  eigenvalues    EBANDS =      -409.56936107
  atomic energy  EATOM  =      4914.83548677
  Solvation  Ediel_sol  =         0.00000000
  ---------------------------------------------------
  free energy    TOTEN  =       -16.45518772 eV

  energy without entropy =      -16.45518772  energy(sigma->0) =      -16.45518772


--------------------------------------------------------------------------------------------------------




--------------------------------------- Iteration      1(   7)  ---------------------------------------


    POTLOK:  cpu time    0.0061: real time    0.0065
    SETDIJ:  cpu time    0.0051: real time    0.0051
     EDDAV:  cpu time    0.4343: real time    0.4354
 BZINTS: Fermi energy:  9.763027; 28.000000 electrons
         Band energy:-395.177153;  BLOECHL correction: -0.033718
       DOS:  cpu time    0.0339: real time    0.0340
    CHARGE:  cpu time    0.0149: real time    0.0150
    MIXING:  cpu time    0.0003: real time    0.0003
    --------------------------------------------
      LOOP:  cpu time    0.4946: real time    0.4962

 eigenvalue-minimisations  :  3408
 total energy-change (2. order) :-0.5621907E-01  (-0.6133268E-01)
 number of electron      27.9999999 magnetization       4.4437143
 augmentation part       16.7742178 magnetization       3.5267189

 Broyden mixing:
  rms(total) = 0.43021E+00    rms(broyden)= 0.43018E+00
  rms(prec ) = 0.52570E+00
  weight for this iteration     100.00

 eigenvalues of (default mixing * dielectric matrix)
  average eigenvalue GAMMA=   0.7673
  0.9881  0.5465

 Free energy of the ion-electron system (eV)
  ---------------------------------------------------
  alpha Z        PSCENC =       218.87048721
  Ewald energy   TEWEN  =     -3616.56080017
  -Hartree energ DENC   =     -1099.08902550
  -exchange      EXHF   =         0.00000000
  -V(xc)+E(xc)   XCENC  =       141.33148116
  PAW double counting   =      4219.57228784    -4400.29417145
  entropy T*S    EENTRO =         0.00000000
  eigenvalues    EBANDS =      -395.17715265
  atomic energy  EATOM  =      4914.83548677
  Solvation  Ediel_sol  =         0.00000000
  ---------------------------------------------------
  free energy    TOTEN  =       -16.51140679 eV

  energy without entropy =      -16.51140679  energy(sigma->0) =      -16.51140679


--------------------------------------------------------------------------------------------------------




--------------------------------------- Iteration      1(   8)  ---------------------------------------


    POTLOK:  cpu time    0.0059: real time    0.0061
    SETDIJ:  cpu time    0.0049: real time    0.0049
     EDDAV:  cpu time    0.4764: real time    0.4776
 BZINTS: Fermi energy:  9.689100; 28.000000 electrons
         Band energy:-397.452356;  BLOECHL correction: -0.033976
       DOS:  cpu time    0.0338: real time    0.0339
    CHARGE:  cpu time    0.0189: real time    0.0189
    MIXING:  cpu time    0.0003: real time    0.0003
    --------------------------------------------
      LOOP:  cpu time    0.5402: real time    0.5417

 eigenvalue-minimisations  :  3744
 total energy-change (2. order) :-0.9991789E-02  (-0.1488063E-02)
 number of electron      27.9999999 magnetization       4.3701324
 augmentation part       16.8104430 magnetization       3.4533163

 Broyden mixing:
  rms(total) = 0.13687E+00    rms(broyden)= 0.13686E+00
  rms(prec ) = 0.21423E+00
  weight for this iteration     100.00

 eigenvalues of (default mixing * dielectric matrix)
  average eigenvalue GAMMA=   1.0472
  1.6981  0.8569  0.5866

 Free energy of the ion-electron system (eV)
  ---------------------------------------------------
  alpha Z        PSCENC =       218.87048721
  Ewald energy   TEWEN  =     -3616.56080017
  -Hartree energ DENC   =     -1095.16194648
  -exchange      EXHF   =         0.00000000
  -V(xc)+E(xc)   XCENC  =       141.10711487
  PAW double counting   =      4267.61119469    -4449.77057991
  entropy T*S    EENTRO =         0.00000000
  eigenvalues    EBANDS =      -397.45235557
  atomic energy  EATOM  =      4914.83548677
  Solvation  Ediel_sol  =         0.00000000
  ---------------------------------------------------
  free energy    TOTEN  =       -16.52139858 eV

  energy without entropy =      -16.52139858  energy(sigma->0) =      -16.52139858


--------------------------------------------------------------------------------------------------------




--------------------------------------- Iteration      1(   9)  ---------------------------------------


    POTLOK:  cpu time    0.0060: real time    0.0061
    SETDIJ:  cpu time    0.0048: real time    0.0048
     EDDAV:  cpu time    0.4547: real time    0.4558
 BZINTS: Fermi energy:  9.610711; 28.000000 electrons
         Band energy:-399.748717;  BLOECHL correction: -0.034531
       DOS:  cpu time    0.0338: real time    0.0339
    CHARGE:  cpu time    0.0144: real time    0.0145
    MIXING:  cpu time    0.0003: real time    0.0003
    --------------------------------------------
      LOOP:  cpu time    0.5141: real time    0.5154

 eigenvalue-minimisations  :  3588
 total energy-change (2. order) : 0.8188675E-02  (-0.5127580E-03)
 number of electron      27.9999999 magnetization       4.4018591
 augmentation part       16.8466604 magnetization       3.4830605

 Broyden mixing:
  rms(total) = 0.33702E-01    rms(broyden)= 0.33697E-01
  rms(prec ) = 0.45924E-01
  weight for this iteration     100.00

 eigenvalues of (default mixing * dielectric matrix)
  average eigenvalue GAMMA=   1.1855
  2.3401  1.0617  0.6988  0.6414

 Free energy of the ion-electron system (eV)
  ---------------------------------------------------
  alpha Z        PSCENC =       218.87048721
  Ewald energy   TEWEN  =     -3616.56080017
  -Hartree energ DENC   =     -1090.24944961
  -exchange      EXHF   =         0.00000000
  -V(xc)+E(xc)   XCENC  =       140.86445854
  PAW double counting   =      4344.01815082    -4528.54282602
  entropy T*S    EENTRO =         0.00000000
  eigenvalues    EBANDS =      -399.74871745
  atomic energy  EATOM  =      4914.83548677
  Solvation  Ediel_sol  =         0.00000000
  ---------------------------------------------------
  free energy    TOTEN  =       -16.51320991 eV

  energy without entropy =      -16.51320991  energy(sigma->0) =      -16.51320991


--------------------------------------------------------------------------------------------------------




--------------------------------------- Iteration      1(  10)  ---------------------------------------


    POTLOK:  cpu time    0.0060: real time    0.0061
    SETDIJ:  cpu time    0.0048: real time    0.0048
     EDDAV:  cpu time    0.4367: real time    0.4377
 BZINTS: Fermi energy:  9.625045; 28.000000 electrons
         Band energy:-399.209945;  BLOECHL correction: -0.034688
       DOS:  cpu time    0.0330: real time    0.0330
    CHARGE:  cpu time    0.0143: real time    0.0144
    MIXING:  cpu time    0.0004: real time    0.0004
    --------------------------------------------
      LOOP:  cpu time    0.4952: real time    0.4965

 eigenvalue-minimisations  :  3432
 total energy-change (2. order) : 0.1734547E-03  (-0.2248433E-03)
 number of electron      27.9999999 magnetization       4.4066535
 augmentation part       16.8346756 magnetization       3.4851092

 Broyden mixing:
  rms(total) = 0.44033E-02    rms(broyden)= 0.44032E-02
  rms(prec ) = 0.54502E-02
  weight for this iteration     100.00

 eigenvalues of (default mixing * dielectric matrix)
  average eigenvalue GAMMA=   1.1290
  2.4319  1.0997  0.7826  0.6972  0.6337

 Free energy of the ion-electron system (eV)
  ---------------------------------------------------
  alpha Z        PSCENC =       218.87048721
  Ewald energy   TEWEN  =     -3616.56080017
  -Hartree energ DENC   =     -1089.86010184
  -exchange      EXHF   =         0.00000000
  -V(xc)+E(xc)   XCENC  =       140.87177314
  PAW double counting   =      4372.88047932    -4558.34041592
  entropy T*S    EENTRO =         0.00000000
  eigenvalues    EBANDS =      -399.20994496
  atomic energy  EATOM  =      4914.83548677
  Solvation  Ediel_sol  =         0.00000000
  ---------------------------------------------------
  free energy    TOTEN  =       -16.51303645 eV

  energy without entropy =      -16.51303645  energy(sigma->0) =      -16.51303645


--------------------------------------------------------------------------------------------------------




--------------------------------------- Iteration      1(  11)  ---------------------------------------


    POTLOK:  cpu time    0.0063: real time    0.0064
    SETDIJ:  cpu time    0.0048: real time    0.0048
     EDDAV:  cpu time    0.4616: real time    0.4627
 BZINTS: Fermi energy:  9.623484; 28.000000 electrons
         Band energy:-399.242019;  BLOECHL correction: -0.034705
       DOS:  cpu time    0.0347: real time    0.0348
    CHARGE:  cpu time    0.0190: real time    0.0190
    MIXING:  cpu time    0.0004: real time    0.0004
    --------------------------------------------
      LOOP:  cpu time    0.5268: real time    0.5282

 eigenvalue-minimisations  :  3624
 total energy-change (2. order) :-0.5913941E-04  (-0.4807713E-05)
 number of electron      27.9999999 magnetization       4.4060448
 augmentation part       16.8352248 magnetization       3.4847659

 Broyden mixing:
  rms(total) = 0.24247E-02    rms(broyden)= 0.24245E-02
  rms(prec ) = 0.32765E-02
  weight for this iteration     100.00

 eigenvalues of (default mixing * dielectric matrix)
  average eigenvalue GAMMA=   1.2937
  2.3012  2.3012  1.0746  0.6330  0.7545  0.6978

 Free energy of the ion-electron system (eV)
  ---------------------------------------------------
  alpha Z        PSCENC =       218.87048721
  Ewald energy   TEWEN  =     -3616.56080017
  -Hartree energ DENC   =     -1089.85254969
  -exchange      EXHF   =         0.00000000
  -V(xc)+E(xc)   XCENC  =       140.87418101
  PAW double counting   =      4374.10645997    -4559.54434205
  entropy T*S    EENTRO =         0.00000000
  eigenvalues    EBANDS =      -399.24201865
  atomic energy  EATOM  =      4914.83548677
  Solvation  Ediel_sol  =         0.00000000
  ---------------------------------------------------
  free energy    TOTEN  =       -16.51309559 eV

  energy without entropy =      -16.51309559  energy(sigma->0) =      -16.51309559


--------------------------------------------------------------------------------------------------------




--------------------------------------- Iteration      1(  12)  ---------------------------------------


    POTLOK:  cpu time    0.0059: real time    0.0060
    SETDIJ:  cpu time    0.0049: real time    0.0049
     EDDAV:  cpu time    0.4864: real time    0.4876
 BZINTS: Fermi energy:  9.621971; 28.000000 electrons
         Band energy:-399.275944;  BLOECHL correction: -0.034718
       DOS:  cpu time    0.0329: real time    0.0330
    CHARGE:  cpu time    0.0189: real time    0.0190
    MIXING:  cpu time    0.0005: real time    0.0005
    --------------------------------------------
      LOOP:  cpu time    0.5494: real time    0.5508

 eigenvalue-minimisations  :  3804
 total energy-change (2. order) :-0.8048774E-05  (-0.4789089E-06)
 number of electron      27.9999999 magnetization       4.4057663
 augmentation part       16.8359282 magnetization       3.4847490

 Broyden mixing:
  rms(total) = 0.95568E-03    rms(broyden)= 0.95563E-03
  rms(prec ) = 0.13477E-02
  weight for this iteration     100.00

 eigenvalues of (default mixing * dielectric matrix)
  average eigenvalue GAMMA=   1.2306
  2.3868  2.3868  1.0832  0.7883  0.7178  0.6258  0.6258

 Free energy of the ion-electron system (eV)
  ---------------------------------------------------
  alpha Z        PSCENC =       218.87048721
  Ewald energy   TEWEN  =     -3616.56080017
  -Hartree energ DENC   =     -1089.90418299
  -exchange      EXHF   =         0.00000000
  -V(xc)+E(xc)   XCENC  =       140.87684895
  PAW double counting   =      4375.18193351    -4560.53693324
  entropy T*S    EENTRO =         0.00000000
  eigenvalues    EBANDS =      -399.27594368
  atomic energy  EATOM  =      4914.83548677
  Solvation  Ediel_sol  =         0.00000000
  ---------------------------------------------------
  free energy    TOTEN  =       -16.51310364 eV

  energy without entropy =      -16.51310364  energy(sigma->0) =      -16.51310364


--------------------------------------------------------------------------------------------------------




--------------------------------------- Iteration      1(  13)  ---------------------------------------


    POTLOK:  cpu time    0.0060: real time    0.0065
    SETDIJ:  cpu time    0.0050: real time    0.0050
     EDDAV:  cpu time    0.4419: real time    0.4429
 BZINTS: Fermi energy:  9.622573; 28.000000 electrons
         Band energy:-399.263584;  BLOECHL correction: -0.034710
       DOS:  cpu time    0.0329: real time    0.0330
    CHARGE:  cpu time    0.0143: real time    0.0143
    MIXING:  cpu time    0.0004: real time    0.0004
    --------------------------------------------
      LOOP:  cpu time    0.5005: real time    0.5022

 eigenvalue-minimisations  :  3528
 total energy-change (2. order) : 0.6774995E-05  (-0.1331213E-06)
 number of electron      27.9999999 magnetization       4.4055668
 augmentation part       16.8356273 magnetization       3.4844395

 Broyden mixing:
  rms(total) = 0.24305E-03    rms(broyden)= 0.24301E-03
  rms(prec ) = 0.33100E-03
  weight for this iteration     100.00

 eigenvalues of (default mixing * dielectric matrix)
  average eigenvalue GAMMA=   1.2909
  2.5255  2.4524  1.4771  1.0638  0.8077  0.6260  0.6873  0.6873

 Free energy of the ion-electron system (eV)
  ---------------------------------------------------
  alpha Z        PSCENC =       218.87048721
  Ewald energy   TEWEN  =     -3616.56080017
  -Hartree energ DENC   =     -1089.91119270
  -exchange      EXHF   =         0.00000000
  -V(xc)+E(xc)   XCENC  =       140.87674111
  PAW double counting   =      4375.30308988    -4560.66332542
  entropy T*S    EENTRO =         0.00000000
  eigenvalues    EBANDS =      -399.26358354
  atomic energy  EATOM  =      4914.83548677
  Solvation  Ediel_sol  =         0.00000000
  ---------------------------------------------------
  free energy    TOTEN  =       -16.51309686 eV

  energy without entropy =      -16.51309686  energy(sigma->0) =      -16.51309686


--------------------------------------------------------------------------------------------------------




--------------------------------------- Iteration      1(  14)  ---------------------------------------


    POTLOK:  cpu time    0.0059: real time    0.0060
    SETDIJ:  cpu time    0.0048: real time    0.0048
     EDDAV:  cpu time    0.3726: real time    0.3735
 BZINTS: Fermi energy:  9.622809; 28.000000 electrons
         Band energy:-399.258851;  BLOECHL correction: -0.034708
       DOS:  cpu time    0.0338: real time    0.0339
    CHARGE:  cpu time    0.0144: real time    0.0144
    MIXING:  cpu time    0.0005: real time    0.0005
    --------------------------------------------
      LOOP:  cpu time    0.4320: real time    0.4331

 eigenvalue-minimisations  :  2688
 total energy-change (2. order) : 0.1517389E-05  (-0.1509937E-07)
 number of electron      27.9999999 magnetization       4.4055846
 augmentation part       16.8355157 magnetization       3.4844243

 Broyden mixing:
  rms(total) = 0.61074E-04    rms(broyden)= 0.60859E-04
  rms(prec ) = 0.81027E-04
  weight for this iteration     100.00

 eigenvalues of (default mixing * dielectric matrix)
  average eigenvalue GAMMA=   1.2120
  2.6082  2.4667  1.2847  1.0495  0.8270  0.6317  0.6677  0.6861  0.6861

 Free energy of the ion-electron system (eV)
  ---------------------------------------------------
  alpha Z        PSCENC =       218.87048721
  Ewald energy   TEWEN  =     -3616.56080017
  -Hartree energ DENC   =     -1089.91357826
  -exchange      EXHF   =         0.00000000
  -V(xc)+E(xc)   XCENC  =       140.87657508
  PAW double counting   =      4375.30312397    -4560.66553937
  entropy T*S    EENTRO =         0.00000000
  eigenvalues    EBANDS =      -399.25885058
  atomic energy  EATOM  =      4914.83548677
  Solvation  Ediel_sol  =         0.00000000
  ---------------------------------------------------
  free energy    TOTEN  =       -16.51309535 eV

  energy without entropy =      -16.51309535  energy(sigma->0) =      -16.51309535


--------------------------------------------------------------------------------------------------------




--------------------------------------- Iteration      1(  15)  ---------------------------------------


    POTLOK:  cpu time    0.0060: real time    0.0061
    SETDIJ:  cpu time    0.0048: real time    0.0048
     EDDAV:  cpu time    0.2843: real time    0.2849
 BZINTS: Fermi energy:  9.622775; 28.000000 electrons
         Band energy:-399.259748;  BLOECHL correction: -0.034708
       DOS:  cpu time    0.0329: real time    0.0330
    --------------------------------------------
      LOOP:  cpu time    0.3279: real time    0.3288

 eigenvalue-minimisations  :  1740
 total energy-change (2. order) :-0.9979885E-08  (-0.1163803E-08)
 number of electron      27.9999999 magnetization       4.4055846
 augmentation part       16.8355157 magnetization       3.4844243

 Free energy of the ion-electron system (eV)
  ---------------------------------------------------
  alpha Z        PSCENC =       218.87048721
  Ewald energy   TEWEN  =     -3616.56080017
  -Hartree energ DENC   =     -1089.91318230
  -exchange      EXHF   =         0.00000000
  -V(xc)+E(xc)   XCENC  =       140.87660634
  PAW double counting   =      4375.29889819    -4560.66084376
  entropy T*S    EENTRO =         0.00000000
  eigenvalues    EBANDS =      -399.25974764
  atomic energy  EATOM  =      4914.83548677
  Solvation  Ediel_sol  =         0.00000000
  ---------------------------------------------------
  free energy    TOTEN  =       -16.51309536 eV

  energy without entropy =      -16.51309536  energy(sigma->0) =      -16.51309536


--------------------------------------------------------------------------------------------------------




 average (electrostatic) potential at core
  the test charge radii are     0.9500
  (the norm of the test charge is              1.0000)
       1 -73.6651       2 -73.6651
 
 
 
 E-fermi :   9.6228     XC(G=0): -13.6244     alpha+bet :-17.4163


 spin component 1

 k-point     1 :       0.0500    0.0500    0.0500
  band No.  band energies     occupation 
      1     -44.5599      1.00000
      2     -44.5599      1.00000
      3     -44.5456      1.00000
      4     -44.2888      1.00000
      5     -44.2741      1.00000
      6     -44.2741      1.00000
      7       1.3979      1.00000
      8       4.9388      1.00000
      9       4.9388      1.00000
     10       7.3050      1.00000
     11       7.3050      1.00000
     12       7.4310      1.00000
     13       8.5806      1.00000
     14       8.5806      1.00000
     15       9.4949      1.00000
     16       9.6872      0.60080
     17       9.6872      0.00979
     18      19.1992      0.00000
     19      19.1992      0.00000
     20      19.4413      0.00000
     21      25.8105      0.00000
     22      25.8105      0.00000
     23      30.6978      0.00000
     24      33.3490      0.00000

 k-point     2 :       0.1500    0.0500    0.0500
  band No.  band energies     occupation 
      1     -44.5659      1.00000
      2     -44.5451      1.00000
      3     -44.5235      1.00000
      4     -44.3205      1.00000
      5     -44.2873      1.00000
      6     -44.2796      1.00000
      7       1.8015      1.00000
      8       5.1067      1.00000
      9       5.1088      1.00000
     10       7.2465      1.00000
     11       7.2948      1.00000
     12       7.5993      1.00000
     13       8.4145      1.00000
     14       8.6556      1.00000
     15       9.1041      1.00000
     16       9.3726      1.02104
     17       9.6658      0.13612
     18      17.0986      0.00000
     19      19.9182      0.00000
     20      20.0954      0.00000
     21      25.9621      0.00000
     22      27.1441      0.00000
     23      31.5528      0.00000
     24      32.1502      0.00000

 k-point     3 :       0.2500    0.0500    0.0500
  band No.  band energies     occupation 
      1     -44.5631      1.00000
      2     -44.5173      1.00000
      3     -44.4928      1.00000
      4     -44.3683      1.00000
      5     -44.3126      1.00000
      6     -44.2996      1.00000
      7       2.5671      1.00000
      8       5.3679      1.00000
      9       5.4279      1.00000
     10       7.2426      1.00000
     11       7.2876      1.00000
     12       7.8418      1.00000
     13       8.1081      1.00000
     14       8.6067      1.00000
     15       8.7949      1.00000
     16       8.8890      1.00000
     17       9.4860      1.03923
     18      14.5754      0.00000
     19      21.1874      0.00000
     20      21.3582      0.00000
     21      26.2947      0.00000
     22      27.9721      0.00000
     23      29.6290      0.00000
     24      31.2961      0.00000

 k-point     4 :       0.3500    0.0500    0.0500
  band No.  band energies     occupation 
      1     -44.5486      1.00000
      2     -44.4794      1.00000
      3     -44.4548      1.00000
      4     -44.4236      1.00000
      5     -44.3480      1.00000
      6     -44.3309      1.00000
      7       3.5892      1.00000
      8       5.5405      1.00000
      9       5.8729      1.00000
     10       7.2460      1.00000
     11       7.3215      1.00000
     12       7.7682      1.00000
     13       8.1305      1.00000
     14       8.1504      1.00000
     15       8.3930      1.00000
     16       9.0194      1.00000
     17       9.2004      1.03865
     18      12.2831      0.00000
     19      22.7943      0.00000
     20      23.0071      0.00000
     21      26.8756      0.00000
     22      27.8750      0.00000
     23      28.6106      0.00000
     24      29.1474      0.00000

 k-point     5 :       0.4500    0.0500    0.0500
  band No.  band energies     occupation 
      1     -44.5198      1.00000
      2     -44.4768      1.00000
      3     -44.4356      1.00000
      4     -44.4126      1.00000
      5     -44.3903      1.00000
      6     -44.3699      1.00000
      7       4.6411      1.00000
      8       5.3583      1.00000
      9       6.3951      1.00000
     10       6.9178      1.00000
     11       7.4993      1.00000
     12       7.7313      1.00000
     13       7.7627      1.00000
     14       7.9856      1.00000
     15       8.4991      1.00000
     16       8.8575      1.00000
     17       9.4833      0.98554
     18      10.5197      0.00000
     19      24.5323      0.00000
     20      24.9044      0.00000
     21      26.2267      0.00000
     22      26.9671      0.00000
     23      27.8214      0.00000
     24      29.2509      0.00000

 k-point     6 :       0.1500    0.1500    0.0500
  band No.  band energies     occupation 
      1     -44.5799      1.00000
      2     -44.5363      1.00000
      3     -44.4912      1.00000
      4     -44.3620      1.00000
      5     -44.2975      1.00000
      6     -44.2741      1.00000
      7       2.1894      1.00000
      8       5.2396      1.00000
      9       5.2984      1.00000
     10       7.0939      1.00000
     11       7.2377      1.00000
     12       7.8702      1.00000
     13       8.4388      1.00000
     14       8.6109      1.00000
     15       8.6247      1.00000
     16       9.1497      1.00691
     17       9.7348      0.03143
     18      17.1957      0.00000
     19      18.2809      0.00000
     20      20.6506      0.00000
     21      26.6286      0.00000
     22      28.5395      0.00000
     23      29.9222      0.00000
     24      31.9696      0.00000

 k-point     7 :       0.2500    0.1500    0.0500
  band No.  band energies     occupation 
      1     -44.5892      1.00000
      2     -44.5108      1.00000
      3     -44.4533      1.00000
      4     -44.4167      1.00000
      5     -44.3205      1.00000
      6     -44.2815      1.00000
      7       2.9158      1.00000
      8       5.4558      1.00000
      9       5.6210      1.00000
     10       6.9884      1.00000
     11       7.1826      1.00000
     12       8.1059      1.00000
     13       8.2003      1.00000
     14       8.2828      1.00000
     15       8.7217      1.00000
     16       8.7247      1.00000
     17       9.6886      0.28935
     18      14.9837      0.00000
     19      19.0119      0.00000
     20      21.7954      0.00000
     21      27.0202      0.00000
     22      27.7479      0.00000
     23      29.9241      0.00000
     24      30.6413      0.00000

 k-point     8 :       0.3500    0.1500    0.0500
  band No.  band energies     occupation 
      1     -44.5851      1.00000
      2     -44.4753      1.00000
      3     -44.4745      1.00000
      4     -44.4126      1.00000
      5     -44.3529      1.00000
      6     -44.3025      1.00000
      7       3.8580      1.00000
      8       5.5958      1.00000
      9       6.0120      1.00000
     10       6.9648      1.00000
     11       7.1191      1.00000
     12       7.6672      1.00000
     13       8.0934      1.00000
     14       8.3378      1.00000
     15       8.5644      1.00000
     16       8.9634      1.00000
     17       9.4969      0.92404
     18      12.6531      0.00000
     19      20.3760      0.00000
     20      23.3118      0.00000
     21      25.6605      0.00000
     22      27.5892      0.00000
     23      28.7792      0.00000
     24      30.9265      0.00000

 k-point     9 :       0.4500    0.1500    0.0500
  band No.  band energies     occupation 
      1     -44.5642      1.00000
      2     -44.5261      1.00000
      3     -44.4342      1.00000
      4     -44.3921      1.00000
      5     -44.3717      1.00000
      6     -44.3338      1.00000
      7       4.7818      1.00000
      8       5.4047      1.00000
      9       6.4371      1.00000
     10       6.8153      1.00000
     11       7.1500      1.00000
     12       7.3559      1.00000
     13       8.0551      1.00000
     14       8.1287      1.00000
     15       8.8894      1.00000
     16       9.2082      1.00000
     17       9.5413      0.77868
     18      10.7643      0.00000
     19      21.9648      0.00000
     20      23.7292      0.00000
     21      25.0472      0.00000
     22      26.8831      0.00000
     23      28.4947      0.00000
     24      29.8474      0.00000

 k-point    10 :       0.2500    0.2500    0.0500
  band No.  band energies     occupation 
      1     -44.6124      1.00000
      2     -44.4901      1.00000
      3     -44.4764      1.00000
      4     -44.4104      1.00000
      5     -44.3382      1.00000
      6     -44.2742      1.00000
      7       3.5388      1.00000
      8       5.5108      1.00000
      9       6.0144      1.00000
     10       6.7717      1.00000
     11       7.1539      1.00000
     12       7.5988      1.00000
     13       8.4265      1.00000
     14       8.4289      1.00000
     15       8.6231      1.00000
     16       8.6651      1.00000
     17       9.8080     -0.03387
     18      14.8628      0.00000
     19      17.4658      0.00000
     20      22.7545      0.00000
     21      25.3835      0.00000
     22      27.3664      0.00000
     23      30.0596      0.00000
     24      32.3853      0.00000

 k-point    11 :       0.3500    0.2500    0.0500
  band No.  band energies     occupation 
      1     -44.6216      1.00000
      2     -44.5346      1.00000
      3     -44.4613      1.00000
      4     -44.3689      1.00000
      5     -44.3636      1.00000
      6     -44.2814      1.00000
      7       4.2636      1.00000
      8       5.4681      1.00000
      9       6.4675      1.00000
     10       6.6642      1.00000
     11       7.1895      1.00000
     12       7.2437      1.00000
     13       8.2729      1.00000
     14       8.4048      1.00000
     15       8.8099      1.00000
     16       9.0699      1.02186
     17       9.7581      0.00403
     18      13.0480      0.00000
     19      18.1035      0.00000
     20      23.1679      0.00000
     21      24.0660      0.00000
     22      27.8482      0.00000
     23      28.7851      0.00000
     24      31.4417      0.00000

 k-point    12 :       0.4500    0.2500    0.0500
  band No.  band energies     occupation 
      1     -44.6119      1.00000
      2     -44.5820      1.00000
      3     -44.4282      1.00000
      4     -44.3945      1.00000
      5     -44.3316      1.00000
      6     -44.3015      1.00000
      7       4.8668      1.00000
      8       5.2599      1.00000
      9       6.6825      1.00000
     10       6.7711      1.00000
     11       7.0124      1.00000
     12       7.2244      1.00000
     13       8.3126      1.00000
     14       8.3955      1.00000
     15       9.1812      1.00000
     16       9.5469      0.95180
     17       9.7288      0.02987
     18      11.1093      0.00000
     19      19.4888      0.00000
     20      21.1931      0.00000
     21      25.5957      0.00000
     22      27.2068      0.00000
     23      28.6470      0.00000
     24      29.8691      0.00000

 k-point    13 :       0.3500    0.3500    0.0500
  band No.  band energies     occupation 
      1     -44.6447      1.00000
      2     -44.5892      1.00000
      3     -44.4420      1.00000
      4     -44.3791      1.00000
      5     -44.3305      1.00000
      6     -44.2743      1.00000
      7       4.6034      1.00000
      8       5.2504      1.00000
      9       6.4675      1.00000
     10       6.7903      1.00000
     11       7.0691      1.00000
     12       7.8005      1.00000
     13       8.3291      1.00000
     14       8.5821      1.00000
     15       8.7315      1.00000
     16       9.5046      0.96293
     17       9.8585     -0.00497
     18      12.6724      0.00000
     19      17.0754      0.00000
     20      20.9326      0.00000
     21      25.1100      0.00000
     22      28.2079      0.00000
     23      28.4080      0.00000
     24      30.7487      0.00000

 k-point    14 :       0.4500    0.3500    0.0500
  band No.  band energies     occupation 
      1     -44.6480      1.00000
      2     -44.6289      1.00000
      3     -44.4202      1.00000
      4     -44.3985      1.00000
      5     -44.3006      1.00000
      6     -44.2811      1.00000
      7       4.8280      1.00000
      8       5.0277      1.00000
      9       6.4162      1.00000
     10       6.5256      1.00000
     11       7.6337      1.00000
     12       8.0158      1.00000
     13       8.4773      1.00000
     14       8.6084      1.00000
     15       9.2345      1.00000
     16       9.7476      0.31713
     17      10.0490      0.00000
     18      11.2873      0.00000
     19      17.6523      0.00000
     20      19.0565      0.00000
     21      26.3161      0.00000
     22      27.4991      0.00000
     23      28.8182      0.00000
     24      29.7269      0.00000

 k-point    15 :       0.4500    0.4500    0.0500
  band No.  band energies     occupation 
      1     -44.6646      1.00000
      2     -44.6581      1.00000
      3     -44.4118      1.00000
      4     -44.4043      1.00000
      5     -44.2810      1.00000
      6     -44.2744      1.00000
      7       4.7958      1.00000
      8       4.8573      1.00000
      9       6.2869      1.00000
     10       6.3244      1.00000
     11       8.3606      1.00000
     12       8.5985      1.00000
     13       8.6195      1.00000
     14       8.7804      1.00000
     15       9.2763      1.00000
     16       9.7026      0.28339
     17      10.4351      0.00000
     18      10.9856      0.00000
     19      16.9430      0.00000
     20      17.5291      0.00000
     21      27.0344      0.00000
     22      27.4879      0.00000
     23      29.0846      0.00000
     24      29.4295      0.00000

 k-point    16 :       0.1500    0.1500    0.1500
  band No.  band energies     occupation 
      1     -44.5642      1.00000
      2     -44.5642      1.00000
      3     -44.4554      1.00000
      4     -44.3995      1.00000
      5     -44.2883      1.00000
      6     -44.2883      1.00000
      7       2.5667      1.00000
      8       5.4269      1.00000
      9       5.4269      1.00000
     10       7.0364      1.00000
     11       7.0364      1.00000
     12       8.0862      1.00000
     13       8.1862      1.00000
     14       8.5283      1.00000
     15       8.5283      1.00000
     16       9.4250      0.99979
     17       9.4250      1.11238
     18      17.8410      0.00000
     19      17.8410      0.00000
     20      19.2370      0.00000
     21      28.7876      0.00000
     22      28.7876      0.00000
     23      29.7386      0.00000
     24      29.7386      0.00000

 k-point    17 :       0.2500    0.1500    0.1500
  band No.  band energies     occupation 
      1     -44.5844      1.00000
      2     -44.5345      1.00000
      3     -44.4509      1.00000
      4     -44.4173      1.00000
      5     -44.3155      1.00000
      6     -44.2877      1.00000
      7       3.2654      1.00000
      8       5.6660      1.00000
      9       5.7001      1.00000
     10       6.9039      1.00000
     11       6.9352      1.00000
     12       7.5734      1.00000
     13       8.3826      1.00000
     14       8.5851      1.00000
     15       8.6829      1.00000
     16       8.9720      1.00000
     17       9.5064      0.95276
     18      15.4700      0.00000
     19      18.9549      0.00000
     20      19.8768      0.00000
     21      27.5258      0.00000
     22      28.5416      0.00000
     23      29.3032      0.00000
     24      30.5093      0.00000

 k-point    18 :       0.3500    0.1500    0.1500
  band No.  band energies     occupation 
      1     -44.5906      1.00000
      2     -44.5039      1.00000
      3     -44.4941      1.00000
      4     -44.3804      1.00000
      5     -44.3534      1.00000
      6     -44.2984      1.00000
      7       4.1487      1.00000
      8       5.8195      1.00000
      9       5.9792      1.00000
     10       6.7956      1.00000
     11       6.9296      1.00000
     12       7.2683      1.00000
     13       8.2263      1.00000
     14       8.5460      1.00000
     15       8.8084      1.00000
     16       9.1281      1.00000
     17       9.4068      0.92714
     18      13.1243      0.00000
     19      20.3546      0.00000
     20      21.0651      0.00000
     21      25.4924      0.00000
     22      26.4577      0.00000
     23      30.1156      0.00000
     24      31.4557      0.00000

 k-point    19 :       0.4500    0.1500    0.1500
  band No.  band energies     occupation 
      1     -44.5790      1.00000
      2     -44.5489      1.00000
      3     -44.4472      1.00000
      4     -44.3987      1.00000
      5     -44.3469      1.00000
      6     -44.3188      1.00000
      7       4.9804      1.00000
      8       5.5625      1.00000
[...]
     19      18.3221      0.00000
     20      20.7970      0.00000
     21      22.3836      0.00000
     22      24.8364      0.00000
     23      26.2504      0.00000
     24      30.1359      0.00000

 k-point    30 :       0.4500    0.3500    0.2500
  band No.  band energies     occupation 
      1     -42.0272      1.00000
      2     -42.0269      1.00000
      3     -41.8756      1.00000
      4     -41.8243      1.00000
      5     -41.7181      1.00000
      6     -41.7138      1.00000
      7       6.7331      1.00000
      8       7.0454      1.00000
      9       7.9679      1.00000
     10       7.9787      1.00000
     11       8.3648      1.00000
     12       8.4915      1.00000
     13      11.1843      0.00000
     14      11.2348      0.00000
     15      11.5150      0.00000
     16      11.5334      0.00000
     17      13.8174      0.00000
     18      14.8898      0.00000
     19      19.1261      0.00000
     20      20.5768      0.00000
     21      21.9128      0.00000
     22      23.4381      0.00000
     23      26.7658      0.00000
     24      28.2362      0.00000

 k-point    31 :       0.4500    0.4500    0.2500
  band No.  band energies     occupation 
      1     -42.0350      1.00000
      2     -42.0343      1.00000
      3     -41.8562      1.00000
      4     -41.8354      1.00000
      5     -41.7245      1.00000
      6     -41.7207      1.00000
      7       6.8533      1.00000
      8       6.9338      1.00000
      9       7.8851      1.00000
     10       7.9000      1.00000
     11       8.6614      1.00000
     12       8.7306      1.00000
     13      11.3010      0.00000
     14      11.3257      0.00000
     15      11.5265      0.00000
     16      11.5391      0.00000
     17      14.4941      0.00000
     18      15.0169      0.00000
     19      18.3897      0.00000
     20      19.0493      0.00000
     21      23.0062      0.00000
     22      24.1214      0.00000
     23      25.2327      0.00000
     24      26.3291      0.00000

 k-point    32 :       0.3500    0.3500    0.3500
  band No.  band energies     occupation 
      1     -42.0111      1.00000
      2     -41.9608      1.00000
      3     -41.9608      1.00000
      4     -41.7722      1.00000
      5     -41.7722      1.00000
      6     -41.7220      1.00000
      7       6.9265      1.00000
      8       7.5008      1.00000
      9       7.9280      1.00000
     10       7.9280      1.00000
     11       8.0744      1.00000
     12       8.0744      1.00000
     13      11.3765      0.00000
     14      11.3765      0.00000
     15      11.4153      0.00000
     16      11.4153      0.00000
     17      13.8657      0.00000
     18      17.4973      0.00000
     19      17.4973      0.00000
     20      19.8865      0.00000
     21      22.8237      0.00000
     22      22.8237      0.00000
     23      24.1457      0.00000
     24      28.0396      0.00000

 k-point    33 :       0.4500    0.3500    0.3500
  band No.  band energies     occupation 
      1     -42.0058      1.00000
      2     -41.9899      1.00000
      3     -41.8981      1.00000
      4     -41.8331      1.00000
      5     -41.7558      1.00000
      6     -41.7371      1.00000
      7       7.2802      1.00000
      8       7.3825      1.00000
      9       7.8726      1.00000
     10       7.9209      1.00000
     11       8.0471      1.00000
     12       8.2173      1.00000
     13      11.3598      0.00000
     14      11.3851      0.00000
     15      11.5029      0.00000
     16      11.5141      0.00000
     17      14.8064      0.00000
     18      16.0278      0.00000
     19      19.1308      0.00000
     20      20.4298      0.00000
     21      20.9115      0.00000
     22      21.6694      0.00000
     23      24.5507      0.00000
     24      26.0867      0.00000

 k-point    34 :       0.4500    0.4500    0.3500
  band No.  band energies     occupation 
      1     -41.9886      1.00000
      2     -41.9774      1.00000
      3     -41.8843      1.00000
      4     -41.8481      1.00000
      5     -41.7784      1.00000
      6     -41.7638      1.00000
      7       7.4287      1.00000
      8       7.4424      1.00000
      9       7.8029      1.00000
     10       7.8458      1.00000
     11       8.1733      1.00000
     12       8.2615      1.00000
     13      11.4437      0.00000
     14      11.4545      0.00000
     15      11.5334      0.00000
     16      11.5377      0.00000
     17      15.8062      0.00000
     18      16.5886      0.00000
     19      18.5409      0.00000
     20      19.5007      0.00000
     21      21.0124      0.00000
     22      22.1185      0.00000
     23      22.9691      0.00000
     24      24.1592      0.00000

 k-point    35 :       0.4500    0.4500    0.4500
  band No.  band energies     occupation 
      1     -41.9437      1.00000
      2     -41.9113      1.00000
      3     -41.9113      1.00000
      4     -41.8427      1.00000
      5     -41.8427      1.00000
      6     -41.8102      1.00000
      7       7.6630      1.00000
      8       7.8095      1.00000
      9       7.8095      1.00000
     10       7.9083      1.00000
     11       7.9536      1.00000
     12       7.9536      1.00000
     13      11.5393      0.00000
     14      11.5393      0.00000
     15      11.5423      0.00000
     16      11.5423      0.00000
     17      17.1205      0.00000
     18      18.3147      0.00000
     19      18.3147      0.00000
     20      20.0019      0.00000
     21      20.1676      0.00000
     22      20.1676      0.00000
     23      21.5179      0.00000
     24      22.3096      0.00000


--------------------------------------------------------------------------------------------------------


 soft charge-density along one line, spin component           1
         0         1         2         3         4         5         6         7         8         9
 total charge-density along one line
 
 soft charge-density along one line, spin component           2
         0         1         2         3         4         5         6         7         8         9
 total charge-density along one line
 
 pseudopotential strength for first ion, spin component:           1
-44.857  -0.000   0.000   7.570   0.000  -0.000   0.000   0.000
 -0.000 -44.857   0.000   0.000   7.570  -0.000  -0.000   0.000
  0.000   0.000 -44.857  -0.000  -0.000   7.570   0.000  -0.000
  7.570   0.000  -0.000   5.638   0.000  -0.000  -0.000  -0.000
  0.000   7.570  -0.000   0.000   5.638   0.000   0.000  -0.000
 -0.000  -0.000   7.570  -0.000   0.000   5.638  -0.000   0.000
  0.000  -0.000   0.000  -0.000   0.000  -0.000  -1.981  -0.000
  0.000   0.000  -0.000  -0.000  -0.000   0.000  -0.000  -1.981
 -0.000   0.000  -0.000   0.000  -0.000  -0.000  -0.000  -0.000
 -0.000   0.000   0.000   0.000  -0.000  -0.000  -0.000   0.000
 -0.000   0.000   0.000   0.000  -0.000  -0.000  -0.000   0.000
 -0.000  -0.000   0.000  -0.000   0.000  -0.000  -2.496  -0.000
  0.000   0.000  -0.000  -0.000  -0.000   0.000  -0.000  -2.496
 -0.000   0.000   0.000   0.000  -0.000   0.000  -0.000  -0.000
 -0.000  -0.000   0.000   0.000  -0.000  -0.000  -0.000   0.000
 -0.000   0.000   0.000   0.000  -0.000  -0.000  -0.000   0.000
 -0.000  -0.000  -0.000  -0.000  -0.000  -0.000  -0.000   0.000
 -0.000  -0.000  -0.000  -0.000  -0.000  -0.000  -0.000   0.000
 pseudopotential strength for first ion, spin component:           2
-42.886  -0.000  -0.000   6.737   0.000   0.000  -0.000   0.000
 -0.000 -42.886   0.000   0.000   6.737  -0.000  -0.000   0.000
 -0.000   0.000 -42.886   0.000  -0.000   6.737   0.000  -0.000
  6.737   0.000   0.000   5.866   0.000   0.000   0.000  -0.000
  0.000   6.737  -0.000   0.000   5.866  -0.000   0.000  -0.000
  0.000  -0.000   6.737   0.000  -0.000   5.866  -0.000   0.000
 -0.000  -0.000   0.000   0.000   0.000  -0.000  -0.455   0.000
  0.000   0.000  -0.000  -0.000  -0.000   0.000   0.000  -0.455
 -0.000   0.000  -0.000   0.000  -0.000  -0.000   0.000  -0.000
 -0.000  -0.000   0.000   0.000  -0.000  -0.000  -0.000   0.000
 -0.000   0.000  -0.000   0.000  -0.000  -0.000  -0.000   0.000
 -0.000  -0.000   0.000  -0.000   0.000  -0.000  -0.995   0.000
  0.000   0.000  -0.000  -0.000  -0.000   0.000   0.000  -0.995
 -0.000   0.000   0.000   0.000  -0.000  -0.000   0.000  -0.000
 -0.000  -0.000   0.000   0.000   0.000  -0.000  -0.000   0.000
 -0.000   0.000   0.000   0.000  -0.000   0.000  -0.000   0.000
 -0.000  -0.000  -0.000  -0.000  -0.000   0.000   0.000   0.000
 -0.000  -0.000  -0.000  -0.000  -0.000   0.000   0.000   0.000
 total augmentation occupancy for first ion, spin component:           1
  1.992   0.000   0.000  -0.027   0.000  -0.000   0.000   0.000   0.000  -0.000   0.000   0.000   0.000   0.000   0.000  -0.000
  0.000   1.992   0.000  -0.000  -0.027  -0.000  -0.000   0.000   0.000   0.000   0.000   0.000   0.000   0.000  -0.000   0.000
  0.000   0.000   1.992   0.000   0.000  -0.027   0.000   0.000  -0.000   0.000   0.000   0.000  -0.000   0.000   0.000   0.000
 -0.027   0.000   0.000   0.201  -0.000  -0.000   0.000   0.000   0.000  -0.000   0.000   0.000   0.000   0.000   0.000  -0.000
 -0.000  -0.027   0.000  -0.000   0.201   0.000   0.000   0.000   0.000   0.000   0.000  -0.000   0.000   0.000   0.000   0.000
 -0.000   0.000  -0.027  -0.000   0.000   0.201   0.000  -0.000  -0.000   0.000   0.000   0.000   0.000   0.000   0.000  -0.000
  0.000   0.000   0.000   0.000  -0.000   0.000   2.169  -0.000   0.000  -0.000   0.000  -1.221  -0.000  -0.000   0.000   0.000
  0.000   0.000   0.000   0.000   0.000   0.000   0.000   2.169   0.000   0.000  -0.000  -0.000  -1.221   0.000  -0.000  -0.000
 -0.000   0.000   0.000   0.000   0.000   0.000   0.000  -0.000   3.407  -0.000   0.000   0.000   0.000  -2.182   0.000  -0.000
  0.000   0.000   0.000   0.000   0.000   0.000  -0.000  -0.000  -0.000   2.169   0.000  -0.000   0.000   0.000  -1.221  -0.000
 -0.000   0.000   0.000   0.000  -0.000   0.000   0.000  -0.000  -0.000  -0.000   3.407   0.000   0.000  -0.000  -0.000  -2.182
  0.000  -0.000   0.000   0.000  -0.000   0.000  -1.221  -0.000   0.000  -0.000   0.000   1.647   0.000   0.000  -0.000   0.000
  0.000   0.000   0.000   0.000   0.000   0.000   0.000  -1.221   0.000   0.000   0.000   0.000   1.647  -0.000   0.000   0.000
  0.000   0.000  -0.000  -0.000   0.000   0.000  -0.000  -0.000  -2.182  -0.000  -0.000  -0.000  -0.000   2.222  -0.000   0.000
  0.000  -0.000   0.000   0.000   0.000   0.000   0.000  -0.000   0.000  -1.221  -0.000  -0.000  -0.000  -0.000   1.647   0.000
  0.000   0.000   0.000   0.000   0.000   0.000  -0.000   0.000   0.000  -0.000  -2.182   0.000   0.000   0.000   0.000   2.222
  0.000  -0.000   0.000   0.000   0.000   0.000  -0.000  -0.000  -0.000   0.000   0.000  -0.000  -0.000   0.000   0.000   0.000
  0.000   0.000   0.000   0.000   0.000   0.000  -0.000   0.000  -0.000  -0.000   0.000   0.000   0.000   0.000   0.000   0.000
 total augmentation occupancy for first ion, spin component:           2
 -0.002   0.000   0.000  -0.009  -0.000   0.000   0.000   0.000   0.000   0.000   0.000   0.000   0.000  -0.000   0.000   0.000
  0.000  -0.002   0.000   0.000  -0.009   0.000  -0.000   0.000   0.000   0.000   0.000   0.000   0.000   0.000   0.000   0.000
  0.000   0.000  -0.002   0.000  -0.000  -0.009   0.000   0.000   0.000   0.000  -0.000   0.000   0.000   0.000   0.000   0.000
 -0.009   0.000   0.000  -0.020  -0.000  -0.000   0.000   0.000   0.000   0.000   0.000   0.000   0.000  -0.000   0.000  -0.000
  0.000  -0.009  -0.000  -0.000  -0.020   0.000  -0.000   0.000   0.000   0.000   0.000   0.000   0.000   0.000   0.000   0.000
  0.000  -0.000  -0.009  -0.000  -0.000  -0.020   0.000   0.000  -0.000   0.000  -0.000   0.000   0.000   0.000   0.000  -0.000
  0.000   0.000   0.000   0.000  -0.000   0.000   1.760  -0.000   0.000  -0.000   0.000  -0.662  -0.000  -0.000  -0.000  -0.000
  0.000   0.000   0.000   0.000   0.000   0.000   0.000   1.760  -0.000   0.000   0.000  -0.000  -0.662  -0.000   0.000  -0.000
 -0.000   0.000   0.000   0.000   0.000   0.000   0.000  -0.000   2.823  -0.000   0.000  -0.000  -0.000  -1.164  -0.000  -0.000
  0.000   0.000   0.000   0.000   0.000   0.000  -0.000   0.000  -0.000   1.760   0.000  -0.000   0.000   0.000  -0.662   0.000
 -0.000   0.000  -0.000   0.000   0.000   0.000   0.000   0.000   0.000   0.000   2.823   0.000   0.000  -0.000  -0.000  -1.164
  0.000   0.000   0.000   0.000  -0.000   0.000  -0.662  -0.000  -0.000  -0.000   0.000  -0.005  -0.000  -0.000   0.000  -0.000
  0.000   0.000   0.000   0.000   0.000   0.000  -0.000  -0.662  -0.000   0.000   0.000  -0.000  -0.005   0.000  -0.000   0.000
  0.000   0.000   0.000  -0.000   0.000  -0.000  -0.000  -0.000  -1.164  -0.000   0.000  -0.000   0.000   0.240  -0.000  -0.000
  0.000   0.000   0.000   0.000   0.000   0.000   0.000   0.000  -0.000  -0.662  -0.000   0.000  -0.000   0.000  -0.005   0.000
  0.000  -0.000   0.000   0.000   0.000   0.000  -0.000  -0.000  -0.000   0.000  -1.164  -0.000  -0.000  -0.000   0.000   0.240
  0.000  -0.000  -0.000   0.000   0.000   0.000   0.000  -0.000  -0.000  -0.000  -0.000  -0.000   0.000  -0.000  -0.000   0.000
  0.000  -0.000  -0.000   0.000   0.000   0.000   0.000  -0.000  -0.000  -0.000  -0.000   0.000  -0.000   0.000   0.000   0.000


------------------------ aborting loop because EDIFF is reached ----------------------------------------


 


 total charge     
 
# of ion       s       p       d       tot
------------------------------------------
    1        0.385   6.378   6.074  12.837
    2        0.385   6.378   6.074  12.837
--------------------------------------------------
tot          0.770  12.755  12.149  25.674
 


 magnetization (x)
 
# of ion       s       p       d       tot
------------------------------------------
    1       -0.008  -0.042   2.292   2.243
    2       -0.008  -0.042   2.292   2.243
--------------------------------------------------
tot         -0.016  -0.083   4.584   4.485
 
    CHARGE:  cpu time    0.0135: real time    0.0135
    FORLOC:  cpu time    0.0002: real time    0.0002
    FORNL :  cpu time    0.0855: real time    0.0858
    STRESS:  cpu time    0.2518: real time    0.2524
    FORCOR:  cpu time    0.0055: real time    0.0055
    FORHAR:  cpu time    0.0007: real time    0.0007
    MIXING:  cpu time    0.0005: real time    0.0005
    OFIELD:  cpu time    0.0000: real time    0.0000

  FORCE on cell =-STRESS in cart. coord.  units (eV):
  Direction    XX          YY          ZZ          XY          YZ          ZX
  --------------------------------------------------------------------------------------
  Alpha Z   218.87049   218.87049   218.87049
  Ewald   -1205.52018 -1205.52018 -1205.52018    -0.00000    -0.00000    -0.00000
  Hartree   363.30445   363.30445   363.30445    -0.00000    -0.00000    -0.00000
  E(xc)    -179.77980  -179.77980  -179.77980    -0.00000    -0.00000    -0.00000
  Local     289.63610   289.63610   289.63610     0.00000     0.00000     0.00000
  n-local   -60.14904   -54.15722   -50.54636     2.76441    -1.55807     0.58799
  augment   285.44307   285.44307   285.44307     0.00000     0.00000     0.00000
  Kinetic   283.95117   282.53849   281.78556     2.94933    -0.71789    -0.10731
  Fock        0.00000     0.00000     0.00000     0.00000     0.00000     0.00000
  -------------------------------------------------------------------------------------
  Total      -0.23834    -0.23834    -0.23834    -0.00000     0.00000     0.00000
  in kB     -16.66940   -16.66940   -16.66940    -0.00000     0.00000     0.00000
  external pressure =      -16.67 kB  Pullay stress =        0.00 kB


 VOLUME and BASIS-vectors are now :
 -----------------------------------------------------------------------------
  energy-cutoff  :      520.00
  volume of cell :       22.91
      direct lattice vectors                 reciprocal lattice vectors
     2.840052000  0.000000000  0.000000000     0.352106229  0.000000000  0.000000000
     0.000000000  2.840052000  0.000000000     0.000000000  0.352106229  0.000000000
     0.000000000  0.000000000  2.840052000     0.000000000  0.000000000  0.352106229

  length of vectors
     2.840052000  2.840052000  2.840052000     0.352106229  0.352106229  0.352106229


 FORCES acting on ions
    electron-ion (+dipol)            ewald-force                    non-local-force                 convergence-correction
 -----------------------------------------------------------------------------------------------
   -.214E-13 -.206E-13 -.531E-13   -.529E-15 -.103E-14 -.897E-14   0.129E-25 0.000E+00 0.194E-25   0.105E-13 -.288E-15 0.367E-14
   0.816E-12 0.135E-11 -.581E-11   0.472E-14 0.447E-14 0.926E-14   0.258E-25 0.258E-25 -.323E-25   0.872E-13 -.103E-13 -.158E-13
 -----------------------------------------------------------------------------------------------
   0.794E-12 0.133E-11 -.586E-11   0.419E-14 0.343E-14 0.284E-15   0.388E-25 0.258E-25 -.129E-25   0.978E-13 -.106E-13 -.121E-13
 
 
 POSITION                                       TOTAL-FORCE (eV/Angst)
 -----------------------------------------------------------------------------------
      0.00000      0.00000      0.00000         0.000000      0.000000      0.000000
      1.42003      1.42003      1.42003        -0.000000     -0.000000     -0.000000
 -----------------------------------------------------------------------------------
    total drift:                                0.000000      0.000000     -0.000000


--------------------------------------------------------------------------------------------------------



  FREE ENERGIE OF THE ION-ELECTRON SYSTEM (eV)
  ---------------------------------------------------
  free  energy   TOTEN  =       -16.51309536 eV

  energy  without entropy=      -16.51309536  energy(sigma->0) =      -16.51309536
 


--------------------------------------------------------------------------------------------------------


    POTLOK:  cpu time    0.0109: real time    0.0109


--------------------------------------------------------------------------------------------------------


     LOOP+:  cpu time    7.8583: real time    7.8913
    4ORBIT:  cpu time    0.0000: real time    0.0000
 


 total charge     
 
# of ion       s       p       d       tot
------------------------------------------
    1        0.385   6.378   6.074  12.837
    2        0.385   6.378   6.074  12.837
--------------------------------------------------
tot          0.770  12.755  12.149  25.674
 


 magnetization (x)
 
# of ion       s       p       d       tot
------------------------------------------
    1       -0.008  -0.042   2.292   2.243
    2       -0.008  -0.042   2.292   2.243
--------------------------------------------------
tot         -0.016  -0.083   4.584   4.485
 
 BZINTS: Fermi energy:  9.622775; 28.000000 electrons
         Band energy:-399.259748;  BLOECHL correction: -0.034708

 total amount of memory used by VASP MPI-rank0    32620. kBytes
=======================================================================

   base      :      30000. kBytes
   nonlr-proj:        899. kBytes
   fftplans  :        261. kBytes
   grid      :        623. kBytes
   one-center:         31. kBytes
   wavefun   :        806. kBytes
 
  
  
 General timing and accounting informations for this job:
 ========================================================
  
                  Total CPU time used (sec):        9.071
                            User time (sec):        8.887
                          System time (sec):        0.184
                         Elapsed time (sec):        9.675
  
                   Maximum memory used (kb):       54772.
                   Average memory used (kb):           0.
  
                          Minor page faults:        13653
                          Major page faults:            0
                 Voluntary context switches:         1596
