       N       E                     dE             d eps       ncg     rms          rms(c)
DAV:   1     0.128221316897E+04    0.12822E+04   -0.31077E+04 58448   0.354E+03
DAV:   2     0.341088045588E+03   -0.94113E+03   -0.85063E+03 67128   0.708E+02
DAV:   3    -0.814164577787E+01   -0.34923E+03   -0.33880E+03 77376   0.366E+02
DAV:   4    -0.754044749634E+02   -0.67263E+02   -0.65517E+02 93944   0.149E+02
DAV:   5    -0.817447672521E+02   -0.63403E+01   -0.59003E+01 96016   0.496E+01    0.378E+01
RMM:   6    -0.978799751699E+02   -0.16135E+02   -0.23671E+02 70056   0.111E+02    0.653E+01
RMM:   7    -0.844215081923E+02    0.13458E+02   -0.10192E+02 57527   0.107E+02    0.263E+01
RMM:   8    -0.829992782245E+02    0.14222E+01   -0.25071E+01 63535   0.392E+01    0.920E+00
RMM:   9    -0.832320469032E+02   -0.23277E+00   -0.14514E+01 65647   0.252E+01    0.558E+00
RMM:  10    -0.833712575053E+02   -0.13921E+00   -0.15383E+00 74734   0.869E+00    0.643E+00
RMM:  11    -0.831983254380E+02    0.17293E+00   -0.63102E-01 77014   0.481E+00    0.278E+00
RMM:  12    -0.832276599655E+02   -0.29335E-01   -0.26289E-01 82844   0.260E+00    0.228E+00
RMM:  13    -0.832376496466E+02   -0.99897E-02   -0.20567E-01 88608   0.188E+00    0.157E+00
RMM:  14    -0.832412593084E+02   -0.36097E-02   -0.90318E-02 87078   0.120E+00    0.818E-01
RMM:  15    -0.832461120247E+02   -0.48527E-02   -0.58728E-02 81502   0.111E+00    0.936E-01
RMM:  16    -0.832468175209E+02   -0.70550E-03   -0.38796E-02 84127   0.774E-01    0.403E-01
RMM:  17    -0.832493127911E+02   -0.24953E-02   -0.25475E-02 77885   0.520E-01    0.175E-01
RMM:  18    -0.832511135960E+02   -0.18008E-02   -0.18413E-02 67265   0.431E-01    0.166E-01
RMM:  19    -0.832522646835E+02   -0.11511E-02   -0.12930E-02 58325   0.392E-01    0.122E-01
RMM:  20    -0.832532478472E+02   -0.98316E-03   -0.10267E-02 54000   0.377E-01    0.344E-02
RMM:  21    -0.832540327221E+02   -0.78487E-03   -0.80199E-03 52721   0.365E-01    0.496E-02
RMM:  22    -0.832546409400E+02   -0.60822E-03   -0.62773E-03 50320   0.366E-01    0.312E-02
RMM:  23    -0.832551283082E+02   -0.48737E-03   -0.49963E-03 49913   0.357E-01    0.160E-02
RMM:  24    -0.832555223972E+02   -0.39409E-03   -0.40630E-03 48156   0.329E-01    0.139E-02
RMM:  25    -0.832558376901E+02   -0.31529E-03   -0.32747E-03 47622   0.299E-01    0.557E-03
RMM:  26    -0.832560913726E+02   -0.25368E-03   -0.26407E-03 46256   0.275E-01    0.881E-03
RMM:  27    -0.832562945408E+02   -0.20317E-03   -0.21253E-03 45318   0.259E-01    0.113E-02
RMM:  28    -0.832564591537E+02   -0.16461E-03   -0.17385E-03 44235   0.248E-01    0.482E-03
RMM:  29    -0.832565934147E+02   -0.13426E-03   -0.14119E-03 43700   0.242E-01    0.235E-03
RMM:  30    -0.832567023323E+02   -0.10892E-03   -0.11694E-03 43312   0.237E-01    0.659E-03
RMM:  31    -0.832567909203E+02   -0.88588E-04   -0.95838E-04 42757   0.228E-01
   1 F= -.83256791E+02 E0= -.83256556E+02  d E =-.832568E+02  mag=    -0.0000
       N       E                     dE             d eps       ncg     rms          rms(c)
DAV:   1    -0.832541301881E+02    0.25721E-02   -0.95473E-02 77816   0.597E+00    0.421E-01
RMM:   2    -0.832579861038E+02   -0.38559E-02   -0.43031E-02 75007   0.127E+00    0.199E-01
RMM:   3    -0.832585856217E+02   -0.59952E-03   -0.92363E-03 73718   0.541E-01    0.349E-01
RMM:   4    -0.832585443146E+02    0.41307E-04   -0.14554E-03 56553   0.295E-01    0.323E-01
RMM:   5    -0.832581966584E+02    0.34766E-03   -0.54241E-04 45321   0.217E-01    0.839E-02
RMM:   6    -0.832581610958E+02    0.35563E-04   -0.57719E-04 44787   0.215E-01
   2 F= -.83258161E+02 E0= -.83257925E+02  d E =-.137018E-02  mag=    -0.0006
       N       E                     dE             d eps       ncg     rms          rms(c)
DAV:   1    -0.832272624243E+02    0.30934E-01   -0.86349E-01 79016   0.179E+01    0.124E+00
RMM:   2    -0.832592903301E+02   -0.32028E-01   -0.33876E-01 73641   0.365E+00    0.910E-01
RMM:   3    -0.832823597363E+02   -0.23069E-01   -0.86913E-02 73223   0.205E+00    0.216E+00
RMM:   4    -0.832605711885E+02    0.21789E-01   -0.20623E-02 66407   0.119E+00    0.552E-01
RMM:   5    -0.832611521828E+02   -0.58099E-03   -0.75234E-03 70810   0.657E-01    0.724E-01
RMM:   6    -0.832593052975E+02    0.18469E-02   -0.36080E-03 64791   0.456E-01    0.188E-01
RMM:   7    -0.832595595665E+02   -0.25427E-03   -0.24524E-03 65799   0.339E-01    0.347E-01
RMM:   8    -0.832593560852E+02    0.20348E-03   -0.11022E-03 50288   0.266E-01    0.184E-01
RMM:   9    -0.832593469137E+02    0.91714E-05   -0.44237E-04 41648   0.228E-01
   3 F= -.83259347E+02 E0= -.83259121E+02  d E =-.255599E-02  mag=    -0.0004
       N       E                     dE             d eps       ncg     rms          rms(c)
DAV:   1    -0.832580973499E+02    0.12587E-02   -0.47728E-02 82528   0.397E+00    0.270E-01
RMM:   2    -0.832594909432E+02   -0.13936E-02   -0.13308E-02 67128   0.720E-01    0.332E-01
RMM:   3    -0.832609839548E+02   -0.14930E-02   -0.34863E-03 60852   0.516E-01    0.738E-01
RMM:   4    -0.832592632410E+02    0.17207E-02   -0.96039E-04 46795   0.352E-01    0.216E-01
RMM:   5    -0.832593788575E+02   -0.11562E-03   -0.39159E-04 39672   0.222E-01    0.231E-01
RMM:   6    -0.832593021963E+02    0.76661E-04   -0.18733E-04 34689   0.241E-01
   4 F= -.83259302E+02 E0= -.83259080E+02  d E =-.251128E-02  mag=    -0.0000
       N       E                     dE             d eps       ncg     rms          rms(c)
DAV:   1    -0.832593259229E+02    0.52935E-04   -0.41329E-03 88992   0.109E+00    0.836E-02
RMM:   2    -0.832599284887E+02   -0.60257E-03   -0.76583E-04 43507   0.249E-01    0.482E-01
RMM:   3    -0.832592985466E+02    0.62994E-03   -0.23004E-04 34541   0.272E-01    0.667E-02
RMM:   4    -0.832593776255E+02   -0.79079E-04   -0.63056E-05 29008   0.217E-01
   5 F= -.83259378E+02 E0= -.83259155E+02  d E =-.258671E-02  mag=     0.0001
       N       E                     dE             d eps       ncg     rms          rms(c)
DAV:   1    -0.832529554999E+02    0.63430E-02   -0.22424E-01 81696   0.429E+00    0.637E-01
RMM:   2    -0.832589203743E+02   -0.59649E-02   -0.31796E-02 76581   0.103E+00    0.297E-01
RMM:   3    -0.832623895884E+02   -0.34692E-02   -0.60902E-03 68853   0.559E-01    0.846E-01
RMM:   4    -0.832593199929E+02    0.30696E-02   -0.17722E-03 48072   0.375E-01    0.155E-01
RMM:   5    -0.832596835174E+02   -0.36352E-03   -0.59543E-04 42680   0.251E-01    0.335E-01
RMM:   6    -0.832594631826E+02    0.22033E-03   -0.30577E-04 38373   0.272E-01    0.924E-02
RMM:   7    -0.832594701496E+02   -0.69670E-05   -0.12032E-04 31228   0.203E-01
   6 F= -.83259470E+02 E0= -.83259247E+02  d E =-.925242E-04  mag=    -0.0007
       N       E                     dE             d eps       ncg     rms          rms(c)
DAV:   1    -0.832594422068E+02    0.20976E-04   -0.34271E-03 89376   0.576E-01    0.687E-02
RMM:   2    -0.832595073134E+02   -0.65107E-04   -0.18365E-04 30165   0.130E-01
   7 F= -.83259507E+02 E0= -.83259285E+02  d E =-.129688E-03  mag=    -0.0019
       N       E                     dE             d eps       ncg     rms          rms(c)
DAV:   1    -0.832595822944E+02   -0.14009E-03   -0.13490E-03 76792   0.383E-01    0.242E-01
RMM:   2    -0.832713271956E+02   -0.11745E-01   -0.71689E-03 57157   0.708E-01    0.175E+00
RMM:   3    -0.832593743367E+02    0.11953E-01   -0.40258E-03 49737   0.658E-01    0.478E-01
RMM:   4    -0.832592771428E+02    0.97194E-04   -0.30844E-04 34308   0.225E-01
   8 F= -.83259277E+02 E0= -.83259048E+02  d E =0.100483E-03  mag=    -0.0002
       N       E                     dE             d eps       ncg     rms          rms(c)
DAV:   1    -0.832594607437E+02   -0.86407E-04   -0.71352E-04 62024   0.400E-01    0.726E-02
RMM:   2    -0.832607467084E+02   -0.12860E-02   -0.47657E-04 35541   0.230E-01    0.662E-01
RMM:   3    -0.832593805090E+02    0.13662E-02   -0.29192E-04 35094   0.251E-01    0.104E-01
RMM:   4    -0.832595189763E+02   -0.13847E-03   -0.46269E-05 27815   0.198E-01    0.105E-01
RMM:   5    -0.832595295515E+02   -0.10575E-04    0.11926E-05 26122   0.189E-01
   9 F= -.83259530E+02 E0= -.83259304E+02  d E =-.151926E-03  mag=     0.0002
       N       E                     dE             d eps       ncg     rms          rms(c)
DAV:   1    -0.832595329989E+02   -0.14023E-04   -0.42894E-04 52688   0.340E-01    0.112E-01
RMM:   2    -0.832629267975E+02   -0.33938E-02   -0.13444E-03 39630   0.347E-01    0.884E-01
RMM:   3    -0.832594758628E+02    0.34509E-02   -0.70541E-04 37333   0.357E-01    0.288E-01
RMM:   4    -0.832594376693E+02    0.38193E-04   -0.51676E-05 27760   0.195E-01
  10 F= -.83259438E+02 E0= -.83259213E+02  d E =-.600439E-04  mag=     0.0005
       N       E                     dE             d eps       ncg     rms          rms(c)
DAV:   1    -0.832595206614E+02   -0.44799E-04   -0.15637E-04 40640   0.304E-01    0.479E-02
RMM:   2    -0.832602059436E+02   -0.68528E-03   -0.17339E-04 32350   0.146E-01    0.526E-01
RMM:   3    -0.832594421852E+02    0.76376E-03   -0.13877E-04 31479   0.165E-01    0.975E-02
RMM:   4    -0.832595183902E+02   -0.76205E-04   -0.32504E-05 27343   0.130E-01
  11 F= -.83259518E+02 E0= -.83259295E+02  d E =-.140765E-03  mag=     0.0005
       N       E                     dE             d eps       ncg     rms          rms(c)
DAV:   1    -0.832595376900E+02   -0.95505E-04   -0.43882E-05 31600   0.163E-01    0.665E-02
RMM:   2    -0.832609927078E+02   -0.14550E-02   -0.41869E-04 35291   0.197E-01    0.700E-01
RMM:   3    -0.832594239113E+02    0.15688E-02   -0.28041E-04 34823   0.225E-01    0.174E-01
RMM:   4    -0.832594901678E+02   -0.66256E-04   -0.22443E-05 27886   0.150E-01
  12 F= -.83259490E+02 E0= -.83259266E+02  d E =-.112542E-03  mag=     0.0005
       N       E                     dE             d eps       ncg     rms          rms(c)
DAV:   1    -0.832595305723E+02   -0.10666E-03   -0.50216E-05 31920   0.177E-01    0.365E-02
RMM:   2    -0.832599896141E+02   -0.45904E-03   -0.10069E-04 29246   0.106E-01    0.445E-01
RMM:   3    -0.832594686971E+02    0.52092E-03   -0.74992E-05 29068   0.129E-01    0.868E-02
RMM:   4    -0.832595207668E+02   -0.52070E-04   -0.20798E-05 26782   0.964E-02
  13 F= -.83259521E+02 E0= -.83259297E+02  d E =-.143141E-03  mag=     0.0006
       N       E                     dE             d eps       ncg     rms          rms(c)
DAV:   1    -0.832595356004E+02   -0.66903E-04   -0.20006E-05 29184   0.106E-01    0.477E-02
RMM:   2    -0.832603351840E+02   -0.79958E-03   -0.19695E-04 33588   0.138E-01    0.562E-01
RMM:   3    -0.832594497240E+02    0.88546E-03   -0.14631E-04 31920   0.164E-01    0.128E-01
RMM:   4    -0.832595078285E+02   -0.58104E-04   -0.18459E-05 27395   0.116E-01
  14 F= -.83259508E+02 E0= -.83259284E+02  d E =-.130203E-03  mag=     0.0006
       N       E                     dE             d eps       ncg     rms          rms(c)
DAV:   1    -0.832595315593E+02   -0.81835E-04   -0.26606E-05 28376   0.128E-01    0.294E-02
RMM:   2    -0.832598351029E+02   -0.30354E-03   -0.63310E-05 28351   0.845E-02    0.370E-01
RMM:   3    -0.832594880065E+02    0.34710E-03   -0.46089E-05 28179   0.104E-01    0.734E-02
RMM:   4    -0.832595234815E+02   -0.35475E-04   -0.85722E-06 25584   0.785E-02
  15 F= -.83259523E+02 E0= -.83259299E+02  d E =-.145856E-03  mag=     0.0006
       N       E                     dE             d eps       ncg     rms          rms(c)
DAV:   1    -0.832595341731E+02   -0.46167E-04   -0.17263E-05 28288   0.953E-02    0.367E-02
RMM:   2    -0.832600208653E+02   -0.48669E-03   -0.10228E-04 28885   0.105E-01    0.457E-01
RMM:   3    -0.832594726312E+02    0.54823E-03   -0.75020E-05 29012   0.136E-01    0.104E-01
RMM:   4    -0.832595160262E+02   -0.43395E-04   -0.13048E-05 26366   0.995E-02
  16 F= -.83259516E+02 E0= -.83259292E+02  d E =-.138401E-03  mag=     0.0006
       N       E                     dE             d eps       ncg     rms          rms(c)
DAV:   1    -0.832595323802E+02   -0.59749E-04   -0.22116E-05 27080   0.114E-01    0.271E-02
RMM:   2    -0.832597939352E+02   -0.26155E-03   -0.50597E-05 28228   0.759E-02    0.346E-01
RMM:   3    -0.832594945811E+02    0.29935E-03   -0.39051E-05 28018   0.968E-02    0.709E-02
RMM:   4    -0.832595236805E+02   -0.29099E-04   -0.20723E-06 24131   0.726E-02
  17 F= -.83259524E+02 E0= -.83259300E+02  d E =-.146055E-03  mag=     0.0006
       N       E                     dE             d eps       ncg     rms          rms(c)
DAV:   1    -0.832595334496E+02   -0.38869E-04   -0.18138E-05 26888   0.970E-02    0.302E-02
RMM:   2    -0.832598664065E+02   -0.33296E-03   -0.67886E-05 28452   0.862E-02    0.387E-01
RMM:   3    -0.832594883442E+02    0.37806E-03   -0.49284E-05 28221   0.112E-01    0.868E-02
RMM:   4    -0.832595202570E+02   -0.31913E-04   -0.24159E-06 24769   0.827E-02
  18 F= -.83259520E+02 E0= -.83259296E+02  d E =-.142632E-03  mag=     0.0006
       N       E                     dE             d eps       ncg     rms          rms(c)
DAV:   1    -0.832595325833E+02   -0.44239E-04   -0.21510E-05 26552   0.110E-01    0.249E-02
RMM:   2    -0.832597555562E+02   -0.22297E-03   -0.42945E-05 28028   0.697E-02    0.322E-01
RMM:   3    -0.832595002479E+02    0.25531E-03   -0.33061E-05 27824   0.892E-02    0.674E-02
RMM:   4    -0.832595242460E+02   -0.23998E-04    0.22112E-06 22803   0.662E-02
  19 F= -.83259524E+02 E0= -.83259300E+02  d E =-.146621E-03  mag=     0.0006
       N       E                     dE             d eps       ncg     rms          rms(c)
DAV:   1    -0.832595330441E+02   -0.32796E-04   -0.18153E-05 26192   0.980E-02    0.260E-02
RMM:   2    -0.832597814797E+02   -0.24844E-03   -0.49678E-05 28203   0.739E-02    0.338E-01
RMM:   3    -0.832594981580E+02    0.28332E-03   -0.36598E-05 27893   0.955E-02    0.747E-02
RMM:   4    -0.832595227074E+02   -0.24549E-04    0.36816E-06 23034   0.708E-02
  20 F= -.83259523E+02 E0= -.83259299E+02  d E =-.145082E-03  mag=     0.0006
       N       E                     dE             d eps       ncg     rms          rms(c)
DAV:   1    -0.832595326010E+02   -0.34443E-04   -0.20778E-05 25808   0.106E-01    0.228E-02
RMM:   2    -0.832597223443E+02   -0.18974E-03   -0.36686E-05 27809   0.641E-02    0.298E-01
RMM:   3    -0.832595049187E+02    0.21743E-03   -0.27950E-05 27700   0.824E-02    0.632E-02
RMM:   4    -0.832595248306E+02   -0.19912E-04    0.61572E-06 21897   0.612E-02
  21 F= -.83259525E+02 E0= -.83259301E+02  d E =-.147205E-03  mag=     0.0006
       N       E                     dE             d eps       ncg     rms          rms(c)
DAV:   1    -0.832595327960E+02   -0.27877E-04   -0.18897E-05 25736   0.991E-02    0.231E-02
RMM:   2    -0.832597287537E+02   -0.19596E-03   -0.38692E-05 27863   0.654E-02    0.303E-01
RMM:   3    -0.832595046471E+02    0.22411E-03   -0.28715E-05 27736   0.845E-02    0.661E-02
RMM:   4    -0.832595242776E+02   -0.19631E-04    0.69528E-06 21918   0.629E-02
  22 F= -.83259524E+02 E0= -.83259300E+02  d E =-.146652E-03  mag=     0.0006
       N       E                     dE             d eps       ncg     rms          rms(c)
DAV:   1    -0.832595325579E+02   -0.27911E-04   -0.19836E-05 25512   0.103E-01    0.210E-02
RMM:   2    -0.832596947004E+02   -0.16214E-03   -0.31372E-05 27638   0.592E-02    0.277E-01
RMM:   3    -0.832595087442E+02    0.18596E-03   -0.23720E-05 27502   0.763E-02    0.590E-02
RMM:   4    -0.832595255151E+02   -0.16771E-04    0.80067E-06 21148   0.569E-02
  23 F= -.83259526E+02 E0= -.83259301E+02  d E =-.147890E-03  mag=     0.0006
       N       E                     dE             d eps       ncg     rms          rms(c)
DAV:   1    -0.832526807451E+02    0.68280E-02   -0.26197E-01 83080   0.460E+00    0.680E-01
RMM:   2    -0.832588828626E+02   -0.62021E-02   -0.28997E-02 76099   0.101E+00    0.366E-01
RMM:   3    -0.832646438496E+02   -0.57610E-02   -0.67056E-03 66822   0.702E-01    0.109E+00
RMM:   4    -0.832592521695E+02    0.53917E-02   -0.25542E-03 49476   0.479E-01    0.318E-01
RMM:   5    -0.832595936968E+02   -0.34153E-03   -0.95605E-04 45874   0.298E-01    0.383E-01
RMM:   6    -0.832593548805E+02    0.23882E-03   -0.40379E-04 39457   0.270E-01    0.153E-01
RMM:   7    -0.832593537885E+02    0.10920E-05   -0.14239E-04 31939   0.195E-01
  24 F= -.83259354E+02 E0= -.83259130E+02  d E =0.238370E-04  mag=     0.0001
