       N       E                     dE             d eps       ncg     rms          rms(c)
DAV:   1     0.127995455640E+04    0.12800E+04   -0.31118E+04 53056   0.355E+03
DAV:   2     0.337517626822E+03   -0.94244E+03   -0.85207E+03 61072   0.706E+02
DAV:   3    -0.979597724153E+01   -0.34731E+03   -0.33715E+03 70320   0.366E+02
DAV:   4    -0.757056772685E+02   -0.65910E+02   -0.64302E+02 85232   0.148E+02
DAV:   5    -0.817639925888E+02   -0.60583E+01   -0.56268E+01 87088   0.490E+01    0.381E+01
DAV:   6    -0.898981223845E+02   -0.81341E+01   -0.33909E+02 71904   0.165E+02    0.526E+01
DAV:   7    -0.801503354158E+02    0.97478E+01   -0.16693E+02 61280   0.165E+02    0.253E+01
DAV:   8    -0.838228867855E+02   -0.36726E+01   -0.44223E+01 82368   0.399E+01    0.951E+00
DAV:   9    -0.831704408627E+02    0.65245E+00   -0.84855E+00 77528   0.190E+01    0.674E+00
DAV:  10    -0.832961282663E+02   -0.12569E+00   -0.10357E+00 87560   0.729E+00    0.353E+00
DAV:  11    -0.833588191582E+02   -0.62691E-01   -0.27515E-01 69544   0.563E+00    0.485E+00
DAV:  12    -0.832535118702E+02    0.10531E+00   -0.18256E-01 72600   0.448E+00    0.156E+00
DAV:  13    -0.832447401225E+02    0.87717E-02   -0.58187E-02 80904   0.238E+00    0.662E-01
DAV:  14    -0.832475558811E+02   -0.28158E-02   -0.13121E-02 83728   0.123E+00    0.220E-01
DAV:  15    -0.832486220820E+02   -0.10662E-02   -0.25148E-03 86600   0.467E-01    0.165E-01
DAV:  16    -0.832488625531E+02   -0.24047E-03   -0.74864E-04 82224   0.228E-01    0.847E-02
DAV:  17    -0.832488983325E+02   -0.35779E-04   -0.12193E-04 86384   0.111E-01    0.420E-02
DAV:  18    -0.832488952101E+02    0.31224E-05   -0.53702E-05 80544   0.738E-02    0.406E-02
DAV:  19    -0.832488928244E+02    0.23857E-05   -0.16471E-05 65816   0.449E-02    0.143E-02
DAV:  20    -0.832488894242E+02    0.34002E-05   -0.38175E-06 44816   0.256E-02    0.637E-03
DAV:  21    -0.832488925940E+02   -0.31698E-05   -0.11618E-06 32712   0.176E-02    0.169E-03
DAV:  22    -0.832488940068E+02   -0.14127E-05   -0.83236E-07 32872   0.129E-02    0.300E-03
DAV:  23    -0.832488939073E+02    0.99468E-07   -0.43209E-07 31976   0.102E-02
   1 F= -.83248894E+02 E0= -.83248894E+02  d E =0.000000E+00  mag=     0.0001
