       N       E                     dE             d eps       ncg     rms          rms(c)
DAV:   1     0.820870522956E+03    0.82087E+03   -0.23494E+04 10276   0.246E+03
DAV:   2     0.187369266504E+03   -0.63350E+03   -0.48429E+03 10672   0.364E+02
DAV:   3    -0.375914661539E+01   -0.19113E+03   -0.18351E+03  8960   0.207E+02
DAV:   4    -0.272527425113E+02   -0.23494E+02   -0.22251E+02 12520   0.653E+01
DAV:   5    -0.295482782911E+02   -0.22955E+01   -0.22154E+01 15464   0.217E+01    0.224E+01
DAV:   6    -0.441798386919E+02   -0.14632E+02   -0.57158E+01 10692   0.705E+01    0.301E+01
DAV:   7    -0.426005502173E+02    0.15793E+01   -0.89091E+00 10996   0.186E+01    0.107E+01
DAV:   8    -0.410233962440E+02    0.15772E+01   -0.33112E+00 11840   0.140E+01    0.340E+00
DAV:   9    -0.410821725771E+02   -0.58776E-01   -0.16817E+00 12000   0.105E+01    0.388E+00
DAV:  10    -0.410568844699E+02    0.25288E-01   -0.32148E-01 13060   0.386E+00    0.126E+00
DAV:  11    -0.411220716865E+02   -0.65187E-01   -0.55644E-02 15248   0.118E+00    0.630E-01
DAV:  12    -0.411583744823E+02   -0.36303E-01   -0.38946E-02 11904   0.944E-01    0.577E-01
DAV:  13    -0.411592051197E+02   -0.83064E-03   -0.14812E-02 12276   0.745E-01    0.182E-01
DAV:  14    -0.411576031013E+02    0.16020E-02   -0.12218E-02 12900   0.350E-01    0.142E-01
DAV:  15    -0.411571523541E+02    0.45075E-03   -0.13316E-03 14080   0.159E-01    0.113E-01
DAV:  16    -0.411567704255E+02    0.38193E-03   -0.83093E-04 13644   0.199E-01    0.442E-02
DAV:  17    -0.411571532907E+02   -0.38287E-03   -0.18490E-04 13808   0.727E-02    0.860E-03
DAV:  18    -0.411572672241E+02   -0.11393E-03   -0.32467E-05 15028   0.263E-02    0.362E-03
DAV:  19    -0.411572450472E+02    0.22177E-04   -0.63334E-06 13180   0.799E-03    0.183E-03
DAV:  20    -0.411572564097E+02   -0.11363E-04   -0.10699E-06 11048   0.342E-03    0.113E-03
DAV:  21    -0.411572513000E+02    0.51098E-05   -0.10022E-07  6880   0.190E-03    0.907E-04
DAV:  22    -0.411572475252E+02    0.37748E-05   -0.36237E-08  4964   0.168E-03    0.344E-04
DAV:  23    -0.411572468566E+02    0.66855E-06   -0.18086E-08  4868   0.695E-04    0.239E-04
DAV:  24    -0.411572470616E+02   -0.20499E-06   -0.81138E-09  4816   0.774E-04    0.702E-05
DAV:  25    -0.411572466910E+02    0.37064E-06   -0.58568E-09  4776   0.425E-04    0.809E-05
DAV:  26    -0.411572464094E+02    0.28157E-06   -0.40815E-09  4752   0.482E-04    0.581E-05
DAV:  27    -0.411572464309E+02   -0.21473E-07   -0.26249E-09  4700   0.347E-04
   1 F= -.41157246E+02 E0= -.41157246E+02  d E =0.000000E+00  mag=    29.7441
