=========================================
SLURM_JOB_ID = 63455421
SLURM_JOB_NODELIST = lnode26
SLURM_GPUS = 
SLURM_CPUS_ON_NODE = 8
SLURM_JOB_PARTITION = lenovo
SLURM_TASK_PID = 2053726
CUDA_VISIBLE_DEVICES = 
==========================================
 running on    8 total cores
 distrk:  each k-point on    8 cores,    1 groups
 distr:  one band on    4 cores,    2 groups
 using from now: INCAR     
 vasp.5.4.4.18Apr17-6-g9f103f2a35 (build Apr 28 2018 00:24:27) complex          
  
 POSCAR found type information on POSCAR  Co
 POSCAR found :  1 types and       2 ions
 scaLAPACK will be used

 ----------------------------------------------------------------------------- 
|                                                                             |
|  ADVICE TO THIS USER RUNNING 'VASP/VAMP'   (HEAR YOUR MASTER'S VOICE ...):  |
|                                                                             |
|      You have a (more or less) 'small supercell' and for smaller cells      |
|      it is recommended  to use the reciprocal-space projection scheme!      |
|      The real space optimization is not  efficient for small cells and it   |
|      is also less accurate ...                                              |
|      Therefore set LREAL=.FALSE. in the  INCAR file                         |
|                                                                             |
 ----------------------------------------------------------------------------- 

 LDA part: xc-table for Pade appr. of Perdew
 POSCAR, INCAR and KPOINTS ok, starting setup
 FFT: planning ...
 WAVECAR not read
 entering main loop
       N       E                     dE             d eps       ncg     rms          rms(c)
DAV:   1     0.802791427632E+02    0.80279E+02   -0.77104E+03  4312   0.156E+03
DAV:   2    -0.140219392603E+02   -0.94301E+02   -0.88063E+02  4262   0.267E+02
DAV:   3    -0.161946193745E+02   -0.21727E+01   -0.21012E+01  4904   0.586E+01
DAV:   4    -0.162255201506E+02   -0.30901E-01   -0.30920E-01  6042   0.540E+00
DAV:   5    -0.162258173669E+02   -0.29722E-03   -0.29778E-03  5034   0.502E-01    0.144E+01
DAV:   6    -0.142626231297E+02    0.19632E+01   -0.16511E+01  4484   0.835E+01    0.796E+00
DAV:   7    -0.139287575105E+02    0.33387E+00   -0.22989E+00  4604   0.298E+01    0.482E+00
DAV:   8    -0.140783652268E+02   -0.14961E+00   -0.15129E-01  5770   0.635E+00    0.217E+00
DAV:   9    -0.140354460569E+02    0.42919E-01   -0.34536E-02  6130   0.279E+00    0.237E+00
DAV:  10    -0.140253354599E+02    0.10111E-01   -0.94454E-04  6044   0.442E-01    0.266E+00
DAV:  11    -0.140699263917E+02   -0.44591E-01   -0.32321E-02  5242   0.301E+00    0.425E-01
DAV:  12    -0.140703859843E+02   -0.45959E-03   -0.98910E-04  5992   0.378E-01    0.161E-01
DAV:  13    -0.140701778037E+02    0.20818E-03   -0.18259E-04  5648   0.221E-01    0.924E-03
DAV:  14    -0.140701672447E+02    0.10559E-04   -0.66900E-06  4692   0.288E-02    0.973E-03
DAV:  15    -0.140701767500E+02   -0.95052E-05   -0.35386E-07  4988   0.794E-03    0.493E-03
DAV:  16    -0.140701859035E+02   -0.91535E-05   -0.20487E-07  3114   0.676E-03    0.506E-04
DAV:  17    -0.140701851800E+02    0.72356E-06   -0.11963E-08  2290   0.148E-03    0.454E-04
DAV:  18    -0.140701863029E+02   -0.11230E-05   -0.32192E-09  2236   0.868E-04    0.690E-05
DAV:  19    -0.140701862704E+02    0.32533E-07   -0.85669E-10  2194   0.310E-04
   1 F= -.14070186E+02 E0= -.14070186E+02  d E =0.000000E+00  mag=     3.1561
