       N       E                     dE             d eps       ncg     rms          rms(c)
DAV:   1     0.200495736447E+03    0.20050E+03   -0.12200E+04  3792   0.138E+03
DAV:   2    -0.818868456052E+01   -0.20868E+03   -0.19740E+03  3424   0.354E+02
DAV:   3    -0.167813031205E+02   -0.85926E+01   -0.85719E+01  3600   0.806E+01
DAV:   4    -0.168447067255E+02   -0.63404E-01   -0.63401E-01  3720   0.669E+00
DAV:   5    -0.168455945419E+02   -0.88782E-03   -0.88781E-03  3608   0.726E-01    0.246E+01
DAV:   6    -0.170412955661E+02   -0.19570E+00   -0.67545E+00  3504   0.379E+01    0.641E+00
DAV:   7    -0.171185468830E+02   -0.77251E-01   -0.55385E-01  3488   0.908E+00    0.411E+00
DAV:   8    -0.171331149400E+02   -0.14568E-01   -0.13224E-02  3632   0.134E+00    0.139E+00
DAV:   9    -0.171249349624E+02    0.81800E-02   -0.43279E-03  3568   0.805E-01    0.332E-01
DAV:  10    -0.171247561202E+02    0.17884E-03   -0.21264E-03  3424   0.555E-01    0.399E-02
DAV:  11    -0.171248019296E+02   -0.45809E-04   -0.63659E-05  3544   0.610E-02    0.233E-02
DAV:  12    -0.171248027214E+02   -0.79174E-06   -0.18534E-06  3208   0.152E-02
   1 F= -.17124803E+02 E0= -.17104686E+02  d E =-.402338E-01  mag=     4.4319
