       N       E                     dE             d eps       ncg     rms          rms(c)
DAV:   1     0.294831447977E+03    0.29483E+03   -0.13854E+04 22712   0.230E+03
DAV:   2     0.269399234544E+02   -0.26789E+03   -0.23425E+03 22080   0.285E+02
DAV:   3    -0.994382628163E+01   -0.36884E+02   -0.35091E+02 22200   0.119E+02
DAV:   4    -0.146754325280E+02   -0.47316E+01   -0.46461E+01 32480   0.311E+01
DAV:   5    -0.148506263100E+02   -0.17519E+00   -0.17483E+00 28584   0.630E+00    0.156E+01
DAV:   6    -0.224313785201E+02   -0.75808E+01   -0.26441E+01 24784   0.662E+01    0.215E+01
DAV:   7    -0.213435068475E+02    0.10879E+01   -0.36958E+00 24680   0.166E+01    0.767E+00
DAV:   8    -0.205299421165E+02    0.81356E+00   -0.16031E+00 24512   0.128E+01    0.253E+00
DAV:   9    -0.205592943757E+02   -0.29352E-01   -0.89587E-01 29184   0.102E+01    0.298E+00
DAV:  10    -0.205373939165E+02    0.21900E-01   -0.10553E-01 28208   0.309E+00    0.125E+00
DAV:  11    -0.205665674951E+02   -0.29174E-01   -0.25511E-02 29512   0.140E+00    0.604E-01
DAV:  12    -0.205837035612E+02   -0.17136E-01   -0.25785E-02 25936   0.125E+00    0.424E-01
DAV:  13    -0.205833562230E+02    0.34734E-03   -0.42406E-03 31136   0.599E-01    0.165E-01
DAV:  14    -0.205834617367E+02   -0.10551E-03   -0.43728E-03 27280   0.373E-01    0.102E-01
DAV:  15    -0.205832126916E+02    0.24905E-03   -0.37898E-04 30496   0.903E-02    0.764E-02
DAV:  16    -0.205832442136E+02   -0.31522E-04   -0.17730E-04 27928   0.110E-01    0.228E-02
DAV:  17    -0.205834079345E+02   -0.16372E-03   -0.19167E-04 27288   0.476E-02    0.550E-03
DAV:  18    -0.205834323939E+02   -0.24459E-04   -0.55871E-06 31008   0.141E-02    0.372E-03
DAV:  19    -0.205834283009E+02    0.40930E-05   -0.11188E-06 24784   0.653E-03    0.104E-03
DAV:  20    -0.205834297726E+02   -0.14717E-05   -0.23884E-07 17992   0.243E-03    0.464E-04
DAV:  21    -0.205834309044E+02   -0.11318E-05   -0.27462E-08 12672   0.162E-03    0.240E-04
DAV:  22    -0.205834308092E+02    0.95240E-07   -0.97057E-09 12184   0.828E-04
   1 F= -.20583431E+02 E0= -.20583431E+02  d E =0.000000E+00  mag=    14.9493
