 vasp.5.4.4.18Apr17-6-g9f103f2a35 (build Apr 28 2018 00:24:27) complex          
  
 executed on             LinuxIFC date 2021.03.19  19:37:15
 running on    8 total cores
 distrk:  each k-point on    8 cores,    1 groups
 distr:  one band on NCORES_PER_BAND=   1 cores,    8 groups


--------------------------------------------------------------------------------------------------------


 INCAR:
 POTCAR:    PAW_PBE Ni 02Aug2007                  

 ----------------------------------------------------------------------------- 
|                                                                             |
|           W    W    AA    RRRRR   N    N  II  N    N   GGGG   !!!           |
|           W    W   A  A   R    R  NN   N  II  NN   N  G    G  !!!           |
|           W    W  A    A  R    R  N N  N  II  N N  N  G       !!!           |
|           W WW W  AAAAAA  RRRRR   N  N N  II  N  N N  G  GGG   !            |
|           WW  WW  A    A  R   R   N   NN  II  N   NN  G    G                |
|           W    W  A    A  R    R  N    N  II  N    N   GGGG   !!!           |
|                                                                             |
|      For optimal performance we recommend to set                            |
|        NCORE= 4 - approx SQRT( number of cores)                             |
|      NCORE specifies how many cores store one orbital (NPAR=cpu/NCORE).     |
|      This setting can  greatly improve the performance of VASP for DFT.     |
|      The default,   NCORE=1            might be grossly inefficient         |
|      on modern multi-core architectures or massively parallel machines.     |
|      Do your own testing !!!!                                               |
|      Unfortunately you need to use the default for GW and RPA calculations. |
|      (for HF NCORE is supported but not extensively tested yet)             |
|                                                                             |
 ----------------------------------------------------------------------------- 

 POTCAR:    PAW_PBE Ni 02Aug2007                  
   SHA256 =  0534bc51ca8003dfef23f56753fef9fdd3e22eac8d719fccacb59f3e6b7a69c7 Ni
   COPYR  = (c) Copyright 02Aug2007 Georg Kresse                                
   COPYR  = This file is part of the software VASP. Any use, copying, and all ot
   COPYR  = If you do not have a valid VASP license, you may not use, copy or di
   VRHFIN =Ni:                                                                  
   LEXCH  = PE                                                                  
   EATOM  =  1077.6739 eV,   79.2068 Ry                                         
                                                                                
   TITEL  = PAW_PBE Ni 02Aug2007                                                
   LULTRA =        F    use ultrasoft PP ?                                      
   IUNSCR =        1    unscreen: 0-lin 1-nonlin 2-no                           
   RPACOR =    2.000    partial core radius                                     
   POMASS =   58.690; ZVAL   =   10.000    mass and valenz                      
   RCORE  =    2.300    outmost cutoff radius                                   
   RWIGS  =    2.430; RWIGS  =    1.286    wigner-seitz radius (au A)           
   ENMAX  =  269.532; ENMIN  =  202.149 eV                                      
   RCLOC  =    1.201    cutoff for local pot                                    
   LCOR   =        T    correct aug charges                                     
   LPAW   =        T    paw PP                                                  
   EAUG   =  544.565                                                            
   DEXC   =    0.000                                                            
   RMAX   =    2.357    core radius for proj-oper                               
   RAUG   =    1.300    factor for augmentation sphere                          
   RDEP   =    2.390    radius for radial grids                                 
   RDEPT  =    1.838    core radius for aug-charge                              
                                                                                
   Atomic configuration                                                         
    9 entries                                                                   
     n  l   j            E        occ.                                          
     1  0  0.50     -8206.4253   2.0000                                         
     2  0  0.50      -976.1748   2.0000                                         
     2  1  1.50      -839.0571   6.0000                                         
     3  0  0.50      -105.9991   2.0000                                         
     3  1  1.50       -66.4603   6.0000                                         
     3  2  2.50        -4.6458   9.0000                                         
     4  0  0.50        -4.4926   1.0000                                         
     4  1  1.50        -4.0817   0.0000                                         
     4  3  2.50        -1.3606   0.0000                                         
   Description                                                                  
     l       E           TYP  RCUT    TYP  RCUT                                 
     2     -4.6457903     23  2.300                                             
     2     -6.0063729     23  2.300                                             
     0     -4.4925590     23  2.300                                             
     0      5.0102601     23  2.300                                             
     1     -2.7211652     23  2.300                                             
     1     16.5183231     23  2.300                                             
  local pseudopotential read in
  partial core-charges read in
  partial kinetic energy density read in
  atomic valenz-charges read in
  non local Contribution for L=           2  read in
    real space projection operators read in
  non local Contribution for L=           2  read in
    real space projection operators read in
  non local Contribution for L=           0  read in
    real space projection operators read in
  non local Contribution for L=           0  read in
    real space projection operators read in
  non local Contribution for L=           1  read in
    real space projection operators read in
  non local Contribution for L=           1  read in
    real space projection operators read in
    PAW grid and wavefunctions read in
 
   number of l-projection  operators is LMAX  =           6
   number of lm-projection operators is LMMAX =          18
 
  PAW_PBE Ni 02Aug2007                  :
 energy of atom  1       EATOM=-1077.6739
 kinetic energy error for atom=    0.0030 (will be added to EATOM!!)
 
 
 POSCAR: Ni1 str #: 3                            
  positions in direct lattice
  No initial velocities read in
 exchange correlation table for  LEXCH =        8
   RHO(1)=    0.500       N(1)  =     2000
   RHO(2)=  100.500       N(2)  =     4000
 


--------------------------------------------------------------------------------------------------------


 ion  position               nearest neighbor table
   1  0.000  0.000  0.000-   2 2.48   4 2.48   4 2.48   2 2.48   4 2.48   2 2.48
   2  0.250  0.250  0.250-   1 2.48   3 2.48   1 2.48   3 2.48   1 2.48   3 2.48
   3  0.500  0.500  0.500-   2 2.48   4 2.48   2 2.48   4 2.48   2 2.48   4 2.48
   4  0.750  0.750  0.750-   1 2.48   3 2.48   3 2.48   1 2.48   3 2.48   1 2.48
 
  LATTYP: Found a trigonal (rhomboedric) cell.
 ALAT       =     8.2142847011
 COS(alpha) =     0.9545454511
  
  Lattice vectors:
  
 A1 = (   0.0000001000,   1.4299234800,  -8.0888684000)
 A2 = (   1.2383502000,  -0.7149617200,  -8.0888684000)
 A3 = (  -1.2383499000,  -0.7149617200,  -8.0888684000)


Analysis of symmetry for initial positions (statically):
=====================================================================
 Subroutine PRICEL returns following result:
 
  LATTYP: Found a face centered cubic cell.
 ALAT       =     3.5025828313
  
  Lattice vectors:
  
 A1 = (   1.2383501000,  -0.7149617300,  -2.0222171000)
 A2 = (   2.4767001000,  -0.0000000000,   0.0000000000)
 A3 = (   1.2383501000,  -2.1448852000,   0.0000000000)
 
   4 primitive cells build up your supercell.
 

 Routine SETGRP: Setting up the symmetry group for a 
 trigonal (rhombohedral) supercell.


 Subroutine GETGRP returns: Found 12 space group operations
 (whereof 12 operations were pure point group operations)
 out of a pool of 12 trial point group operations.


The static configuration has the point symmetry D_3d.


Analysis of symmetry for dynamics (positions and initial velocities):
=====================================================================
 Subroutine PRICEL returns following result:
 
  LATTYP: Found a face centered cubic cell.
 ALAT       =     3.5025828313
  
  Lattice vectors:
  
 A1 = (   1.2383501000,  -0.7149617300,  -2.0222171000)
 A2 = (   2.4767001000,  -0.0000000000,   0.0000000000)
 A3 = (   1.2383501000,  -2.1448852000,   0.0000000000)
 
   4 primitive cells build up your supercell.
 

 Routine SETGRP: Setting up the symmetry group for a 
 trigonal (rhombohedral) supercell.


 Subroutine GETGRP returns: Found 12 space group operations
 (whereof 12 operations were pure point group operations)
 out of a pool of 12 trial point group operations.


The dynamic configuration has the point symmetry D_3d.


Analysis of structural, dynamic, and magnetic symmetry:
=====================================================================
 Subroutine PRICEL returns following result:
 
  LATTYP: Found a trigonal (rhomboedric) cell.
 ALAT       =     4.2897702748
 COS(alpha) =     0.8333333205
  
  Lattice vectors:
  
 A1 = (   1.2383500000,  -0.7149617400,   4.0444342000)
 A2 = (  -0.0000001000,   1.4299234600,   4.0444342000)
 A3 = (  -1.2383501000,  -0.7149617400,   4.0444342000)
 
   2 primitive cells build up your supercell.
 

 Routine SETGRP: Setting up the symmetry group for a 
 trigonal (rhombohedral) supercell.


 Subroutine GETGRP returns: Found 12 space group operations
 (whereof  6 operations were pure point group operations)
 out of a pool of 12 trial point group operations.


The magnetic configuration has the point symmetry C_3v.
 The point group associated with its full space group is D_3d.


 Subroutine INISYM returns: Found 12 space group operations
 (whereof  6 operations are pure point group operations),
 and found     2 'primitive' translations

 
 
 KPOINTS: k-points                                

Automatic generation of k-mesh.
Space group operators:
 irot       det(A)        alpha          n_x          n_y          n_z        tau_x        tau_y        tau_z
    1     1.000000     0.000001     1.000000     0.000000     0.000000     0.000000     0.000000     0.000000
    2    -1.000000   180.000000     1.000000     0.000000     0.000000     0.000000     0.000000     0.000000
    3     1.000000   120.000000    -0.000000     0.000000     1.000000     0.000000     0.000000     0.000000
    4    -1.000000   180.000000    -0.500000     0.866025    -0.000000     0.000000     0.000000     0.000000
    5     1.000000   120.000000     0.000000     0.000000    -1.000000     0.000000     0.000000     0.000000
    6    -1.000000   180.000000     0.500000     0.866025     0.000000     0.000000     0.000000     0.000000
    7    -1.000000     0.000001     1.000000     0.000000     0.000000    -0.250000    -0.250000     0.750000
    8     1.000000   180.000000     1.000000     0.000000     0.000000    -0.250000    -0.250000     0.750000
    9    -1.000000   120.000000    -0.000000     0.000000     1.000000    -0.250000    -0.250000     0.750000
   10     1.000000   180.000000    -0.500000     0.866025    -0.000000    -0.250000    -0.250000     0.750000
   11    -1.000000   120.000000     0.000000     0.000000    -1.000000    -0.250000    -0.250000     0.750000
   12     1.000000   180.000000     0.500000     0.866025     0.000000    -0.250000    -0.250000     0.750000
 
 Subroutine IBZKPT returns following result:
 ===========================================
 
 Found    146 irreducible k-points:
 
 Following reciprocal coordinates:
            Coordinates               Weight
  0.000000  0.000000  0.000000      1.000000
  0.090909  0.000000  0.000000      6.000000
  0.181818  0.000000  0.000000      6.000000
  0.272727  0.000000 -0.000000      6.000000
  0.363636  0.000000  0.000000      6.000000
  0.454545  0.000000  0.000000      6.000000
  0.090909  0.090909  0.000000      6.000000
  0.181818  0.090909  0.000000     12.000000
  0.272727  0.090909 -0.000000     12.000000
  0.363636  0.090909  0.000000     12.000000
  0.454545  0.090909  0.000000     12.000000
 -0.454545  0.090909  0.000000     12.000000
 -0.363636  0.090909 -0.000000     12.000000
 -0.272727  0.090909  0.000000     12.000000
 -0.181818  0.090909 -0.000000     12.000000
 -0.090909  0.090909 -0.000000      6.000000
  0.181818  0.181818  0.000000      6.000000
  0.272727  0.181818  0.000000     12.000000
  0.363636  0.181818  0.000000     12.000000
  0.454545  0.181818  0.000000     12.000000
 -0.454545  0.181818 -0.000000     12.000000
 -0.363636  0.181818 -0.000000     12.000000
 -0.272727  0.181818 -0.000000     12.000000
 -0.181818  0.181818 -0.000000      6.000000
  0.272727  0.272727  0.000000      6.000000
  0.363636  0.272727  0.000000     12.000000
  0.454545  0.272727  0.000000     12.000000
 -0.454545  0.272727 -0.000000     12.000000
 -0.363636  0.272727 -0.000000     12.000000
 -0.272727  0.272727  0.000000      6.000000
  0.363636  0.363636  0.000000      6.000000
  0.454545  0.363636  0.000000     12.000000
 -0.454545  0.363636  0.000000     12.000000
 -0.363636  0.363636 -0.000000      6.000000
  0.454545  0.454545  0.000000      6.000000
 -0.454545  0.454545 -0.000000      6.000000
  0.000000  0.000000  0.090909      2.000000
  0.181818  0.000000  0.090909      6.000000
  0.272727  0.000000  0.090909      6.000000
  0.363636  0.000000  0.090909      6.000000
  0.454545  0.000000  0.090909      6.000000
 -0.454545 -0.000000  0.090909      6.000000
 -0.363636 -0.000000  0.090909      6.000000
 -0.272727 -0.000000  0.090909      6.000000
 -0.181818 -0.000000  0.090909      6.000000
 -0.090909 -0.000000  0.090909      6.000000
  0.272727  0.181818  0.090909     12.000000
  0.363636  0.181818  0.090909     12.000000
  0.454545  0.181818  0.090909     12.000000
 -0.454545  0.181818  0.090909     12.000000
  0.272727  0.272727  0.090909      6.000000
  0.363636  0.272727  0.090909     12.000000
  0.454545  0.272727  0.090909     12.000000
 -0.454545  0.272727  0.090909     12.000000
 -0.363636  0.272727  0.090909     12.000000
 -0.272727  0.272727  0.090909     12.000000
 -0.181818  0.272727  0.090909     12.000000
 -0.090909  0.272727  0.090909     12.000000
  0.363636  0.363636  0.090909      6.000000
  0.454545  0.363636  0.090909     12.000000
 -0.454545  0.363636  0.090909     12.000000
 -0.363636  0.363636  0.090909     12.000000
 -0.272727  0.363636  0.090909     12.000000
 -0.181818  0.363636  0.090909     12.000000
 -0.090909  0.363636  0.090909     12.000000
  0.454545  0.454545  0.090909      6.000000
 -0.454545  0.454545  0.090909     12.000000
 -0.363636  0.454545  0.090909     12.000000
 -0.272727  0.454545  0.090909     12.000000
 -0.181818  0.454545  0.090909     12.000000
 -0.090909  0.454545  0.090909     12.000000
 -0.454545 -0.454545  0.090909      6.000000
 -0.363636 -0.454545  0.090909     12.000000
 -0.272727 -0.454545  0.090909     12.000000
 -0.181818 -0.454545  0.090909     12.000000
 -0.090909 -0.454545  0.090909     12.000000
 -0.363636 -0.363636  0.090909      6.000000
 -0.272727 -0.363636  0.090909     12.000000
 -0.181818 -0.363636  0.090909     12.000000
 -0.090909 -0.363636  0.090909     12.000000
 -0.272727 -0.272727  0.090909      6.000000
 -0.181818 -0.272727  0.090909     12.000000
 -0.090909 -0.272727  0.090909     12.000000
 -0.181818 -0.181818  0.090909      6.000000
 -0.090909 -0.181818  0.090909     12.000000
 -0.090909 -0.090909  0.090909      6.000000
  0.000000  0.000000  0.181818      2.000000
  0.363636  0.000000  0.181818      6.000000
  0.454545  0.000000  0.181818      6.000000
 -0.454545 -0.000000  0.181818      6.000000
 -0.363636 -0.000000  0.181818      6.000000
 -0.272727 -0.000000  0.181818      6.000000
 -0.181818 -0.000000  0.181818      6.000000
 -0.090909 -0.000000  0.181818      6.000000
  0.454545  0.363636  0.181818     12.000000
 -0.454545  0.363636  0.181818     12.000000
 -0.363636  0.363636  0.181818     12.000000
  0.454545  0.454545  0.181818      6.000000
 -0.454545  0.454545  0.181818     12.000000
 -0.363636  0.454545  0.181818     12.000000
 -0.272727  0.454545  0.181818     12.000000
 -0.181818  0.454545  0.181818     12.000000
 -0.090909  0.454545  0.181818     12.000000
 -0.454545 -0.454545  0.181818      6.000000
 -0.363636 -0.454545  0.181818     12.000000
 -0.272727 -0.454545  0.181818     12.000000
 -0.181818 -0.454545  0.181818     12.000000
 -0.090909 -0.454545  0.181818     12.000000
 -0.363636 -0.363636  0.181818      6.000000
 -0.272727 -0.363636  0.181818     12.000000
 -0.181818 -0.363636  0.181818     12.000000
 -0.090909 -0.363636  0.181818     12.000000
 -0.272727 -0.272727  0.181818      6.000000
 -0.181818 -0.272727  0.181818     12.000000
 -0.090909 -0.272727  0.181818     12.000000
 -0.181818 -0.181818  0.181818      6.000000
 -0.090909 -0.181818  0.181818     12.000000
 -0.090909 -0.090909  0.181818      6.000000
  0.000000  0.000000  0.272727      2.000000
 -0.454545 -0.000000  0.272727      6.000000
 -0.363636 -0.000000  0.272727      6.000000
 -0.272727 -0.000000  0.272727      6.000000
 -0.181818 -0.000000  0.272727      6.000000
 -0.090909 -0.000000  0.272727      6.000000
 -0.363636 -0.454545  0.272727     12.000000
 -0.272727 -0.454545  0.272727     12.000000
 -0.363636 -0.363636  0.272727      6.000000
 -0.272727 -0.363636  0.272727     12.000000
 -0.181818 -0.363636  0.272727     12.000000
 -0.090909 -0.363636  0.272727     12.000000
 -0.272727 -0.272727  0.272727      6.000000
 -0.181818 -0.272727  0.272727     12.000000
 -0.090909 -0.272727  0.272727     12.000000
 -0.181818 -0.181818  0.272727      6.000000
 -0.090909 -0.181818  0.272727     12.000000
 -0.090909 -0.090909  0.272727      6.000000
  0.000000  0.000000  0.363636      2.000000
 -0.272727 -0.000000  0.363636      6.000000
 -0.181818 -0.000000  0.363636      6.000000
 -0.090909 -0.000000  0.363636      6.000000
 -0.181818 -0.272727  0.363636     12.000000
 -0.181818 -0.181818  0.363636      6.000000
 -0.090909 -0.181818  0.363636     12.000000
 -0.090909 -0.090909  0.363636      6.000000
  0.000000  0.000000  0.454545      2.000000
 -0.090909 -0.000000  0.454545      6.000000
 
 Following cartesian coordinates:
            Coordinates               Weight
  0.000000  0.000000  0.000000      1.000000
  0.036706 -0.021192 -0.003746      6.000000
  0.073411 -0.042384 -0.007493      6.000000
  0.110117 -0.063576 -0.011239      6.000000
  0.146823 -0.084768 -0.014985      6.000000
  0.183529 -0.105960 -0.018731      6.000000
  0.036706  0.021192 -0.007493      6.000000
  0.073411  0.000000 -0.011239     12.000000
  0.110117 -0.021192 -0.014985     12.000000
  0.146823 -0.042384 -0.018731     12.000000
  0.183529 -0.063576 -0.022478     12.000000
 -0.183529  0.148344  0.014985     12.000000
 -0.146823  0.127152  0.011239     12.000000
 -0.110117  0.105960  0.007493     12.000000
 -0.073411  0.084768  0.003746     12.000000
 -0.036706  0.063576 -0.000000      6.000000
  0.073411  0.042384 -0.014985      6.000000
  0.110117  0.021192 -0.018731     12.000000
  0.146823  0.000000 -0.022478     12.000000
  0.183529 -0.021192 -0.026224     12.000000
 -0.183529  0.190729  0.011239     12.000000
 -0.146823  0.169537  0.007493     12.000000
 -0.110117  0.148344  0.003746     12.000000
 -0.073411  0.127152 -0.000000      6.000000
  0.110117  0.063576 -0.022478      6.000000
  0.146823  0.042384 -0.026224     12.000000
  0.183529  0.021192 -0.029970     12.000000
 -0.183529  0.233113  0.007493     12.000000
 -0.146823  0.211921  0.003746     12.000000
 -0.110117  0.190729 -0.000000      6.000000
  0.146823  0.084768 -0.029970      6.000000
  0.183529  0.063576 -0.033716     12.000000
 -0.183529  0.275497  0.003746     12.000000
 -0.146823  0.254305 -0.000000      6.000000
  0.183529  0.105960 -0.037463      6.000000
 -0.183529  0.317881 -0.000000      6.000000
  0.000000  0.000000  0.011239      2.000000
  0.073411 -0.042384  0.003746      6.000000
  0.110117 -0.063576  0.000000      6.000000
  0.146823 -0.084768 -0.003746      6.000000
  0.183529 -0.105960 -0.007493      6.000000
 -0.183529  0.105960  0.029970      6.000000
 -0.146823  0.084768  0.026224      6.000000
 -0.110117  0.063576  0.022478      6.000000
 -0.073411  0.042384  0.018731      6.000000
 -0.036706  0.021192  0.014985      6.000000
  0.110117  0.021192 -0.007493     12.000000
  0.146823  0.000000 -0.011239     12.000000
  0.183529 -0.021192 -0.014985     12.000000
 -0.183529  0.190729  0.022478     12.000000
  0.110117  0.063576 -0.011239      6.000000
  0.146823  0.042384 -0.014985     12.000000
  0.183529  0.021192 -0.018731     12.000000
 -0.183529  0.233113  0.018731     12.000000
 -0.146823  0.211921  0.014985     12.000000
 -0.110117  0.190729  0.011239     12.000000
 -0.073411  0.169537  0.007493     12.000000
 -0.036706  0.148344  0.003746     12.000000
  0.146823  0.084768 -0.018731      6.000000
  0.183529  0.063576 -0.022478     12.000000
 -0.183529  0.275497  0.014985     12.000000
 -0.146823  0.254305  0.011239     12.000000
 -0.110117  0.233113  0.007493     12.000000
 -0.073411  0.211921  0.003746     12.000000
 -0.036706  0.190729 -0.000000     12.000000
  0.183529  0.105960 -0.026224      6.000000
 -0.183529  0.317881  0.011239     12.000000
 -0.146823  0.296689  0.007493     12.000000
 -0.110117  0.275497  0.003746     12.000000
 -0.073411  0.254305 -0.000000     12.000000
 -0.036706  0.233113 -0.003746     12.000000
 -0.183529 -0.105960  0.048701      6.000000
 -0.146823 -0.127152  0.044955     12.000000
 -0.110117 -0.148344  0.041209     12.000000
 -0.073411 -0.169537  0.037463     12.000000
 -0.036706 -0.190729  0.033716     12.000000
 -0.146823 -0.084768  0.041209      6.000000
 -0.110117 -0.105960  0.037463     12.000000
 -0.073411 -0.127152  0.033716     12.000000
 -0.036706 -0.148344  0.029970     12.000000
 -0.110117 -0.063576  0.033716      6.000000
 -0.073411 -0.084768  0.029970     12.000000
 -0.036706 -0.105960  0.026224     12.000000
 -0.073411 -0.042384  0.026224      6.000000
 -0.036706 -0.063576  0.022478     12.000000
 -0.036706 -0.021192  0.018731      6.000000
  0.000000  0.000000  0.022478      2.000000
  0.146823 -0.084768  0.007493      6.000000
  0.183529 -0.105960  0.003746      6.000000
 -0.183529  0.105960  0.041209      6.000000
 -0.146823  0.084768  0.037463      6.000000
 -0.110117  0.063576  0.033716      6.000000
 -0.073411  0.042384  0.029970      6.000000
 -0.036706  0.021192  0.026224      6.000000
  0.183529  0.063576 -0.011239     12.000000
 -0.183529  0.275497  0.026224     12.000000
 -0.146823  0.254305  0.022478     12.000000
  0.183529  0.105960 -0.014985      6.000000
 -0.183529  0.317881  0.022478     12.000000
 -0.146823  0.296689  0.018731     12.000000
 -0.110117  0.275497  0.014985     12.000000
 -0.073411  0.254305  0.011239     12.000000
 -0.036706  0.233113  0.007493     12.000000
 -0.183529 -0.105960  0.059940      6.000000
 -0.146823 -0.127152  0.056194     12.000000
 -0.110117 -0.148344  0.052448     12.000000
 -0.073411 -0.169537  0.048701     12.000000
 -0.036706 -0.190729  0.044955     12.000000
 -0.146823 -0.084768  0.052448      6.000000
 -0.110117 -0.105960  0.048701     12.000000
 -0.073411 -0.127152  0.044955     12.000000
 -0.036706 -0.148344  0.041209     12.000000
 -0.110117 -0.063576  0.044955      6.000000
 -0.073411 -0.084768  0.041209     12.000000
 -0.036706 -0.105960  0.037463     12.000000
 -0.073411 -0.042384  0.037463      6.000000
 -0.036706 -0.063576  0.033716     12.000000
 -0.036706 -0.021192  0.029970      6.000000
  0.000000  0.000000  0.033716      2.000000
 -0.183529  0.105960  0.052448      6.000000
 -0.146823  0.084768  0.048701      6.000000
 -0.110117  0.063576  0.044955      6.000000
 -0.073411  0.042384  0.041209      6.000000
 -0.036706  0.021192  0.037463      6.000000
 -0.146823 -0.127152  0.067433     12.000000
 -0.110117 -0.148344  0.063686     12.000000
 -0.146823 -0.084768  0.063686      6.000000
 -0.110117 -0.105960  0.059940     12.000000
 -0.073411 -0.127152  0.056194     12.000000
 -0.036706 -0.148344  0.052448     12.000000
 -0.110117 -0.063576  0.056194      6.000000
 -0.073411 -0.084768  0.052448     12.000000
 -0.036706 -0.105960  0.048701     12.000000
 -0.073411 -0.042384  0.048701      6.000000
 -0.036706 -0.063576  0.044955     12.000000
 -0.036706 -0.021192  0.041209      6.000000
  0.000000  0.000000  0.044955      2.000000
 -0.110117  0.063576  0.056194      6.000000
 -0.073411  0.042384  0.052448      6.000000
 -0.036706  0.021192  0.048701      6.000000
 -0.073411 -0.084768  0.063686     12.000000
 -0.073411 -0.042384  0.059940      6.000000
 -0.036706 -0.063576  0.056194     12.000000
 -0.036706 -0.021192  0.052448      6.000000
  0.000000  0.000000  0.056194      2.000000
 -0.036706  0.021192  0.059940      6.000000
 


--------------------------------------------------------------------------------------------------------




 Dimension of arrays:
   k-points           NKPTS =    146   k-points in BZ     NKDIM =    146   number of bands    NBANDS=     24
   number of dos      NEDOS =    301   number of ions     NIONS =      4
   non local maximal  LDIM  =      6   non local SUM 2l+1 LMDIM =     18
   total plane-waves  NPLWV =  20736
   max r-space proj   IRMAX =      1   max aug-charges    IRDMAX=  15840
   dimension x,y,z NGX =    18 NGY =   18 NGZ =   64
   dimension x,y,z NGXF=    36 NGYF=   36 NGZF=  128
   support grid    NGXF=    36 NGYF=   36 NGZF=  128
   ions per type =               4
   NGX,Y,Z   is equivalent  to a cutoff of  12.08, 12.08, 12.95 a.u.
   NGXF,Y,Z  is equivalent  to a cutoff of  24.16, 24.16, 25.91 a.u.

 SYSTEM =  unknown system                          
 POSCAR =  Ni1 str #: 3                            

 Startparameter for this run:
   NWRITE =      2    write-flag & timer
   PREC   = accura    normal or accurate (medium, high low for compatibility)
   ISTART =      0    job   : 0-new  1-cont  2-samecut
   ICHARG =      2    charge: 1-file 2-atom 10-const
   ISPIN  =      2    spin polarized calculation?
   LNONCOLLINEAR =      F non collinear calculations
   LSORBIT =      F    spin-orbit coupling
   INIWAV =      1    electr: 0-lowe 1-rand  2-diag
   LASPH  =      T    aspherical Exc in radial PAW
   METAGGA=      F    non-selfconsistent MetaGGA calc.

 Electronic Relaxation 1
   ENCUT  =  520.0 eV  38.22 Ry    6.18 a.u.   4.61  4.61 15.27*2*pi/ulx,y,z
   ENINI  =  520.0     initial cutoff
   ENAUG  =  544.6 eV  augmentation charge cutoff
   NELM   =     60;   NELMIN=  2; NELMDL= -5     # of ELM steps 
   EDIFF  = 0.1E-05   stopping-criterion for ELM
   LREAL  =      F    real-space projection
   NLSPLINE    = F    spline interpolate recip. space projectors
   LCOMPAT=      F    compatible to vasp.4.4
   GGA_COMPAT  = T    GGA compatible to vasp.4.4-vasp.4.6
   LMAXPAW     = -100 max onsite density
   LMAXMIX     =    2 max onsite mixed and CHGCAR
   VOSKOWN=      0    Vosko Wilk Nusair interpolation
   ROPT   =    0.00000
 Ionic relaxation
   EDIFFG = 0.1E-04   stopping-criterion for IOM
   NSW    =      0    number of steps for IOM
   NBLOCK =      1;   KBLOCK =      1    inner block; outer block 
   IBRION =     -1    ionic relax: 0-MD 1-quasi-New 2-CG
   NFREE  =      1    steps in history (QN), initial steepest desc. (CG)
   ISIF   =      2    stress and relaxation
   IWAVPR =     10    prediction:  0-non 1-charg 2-wave 3-comb
   ISYM   =      2    0-nonsym 1-usesym 2-fastsym
   LCORR  =      T    Harris-Foulkes like correction to forces

   POTIM  = 0.5000    time-step for ionic-motion
   TEIN   =    0.0    initial temperature
   TEBEG  =    0.0;   TEEND  =   0.0 temperature during run
   SMASS  =  -3.00    Nose mass-parameter (am)
   estimated Nose-frequenzy (Omega)   =  0.10E-29 period in steps =****** mass=  -0.140E-27a.u.
   SCALEE = 1.0000    scale energy and forces
   NPACO  =    256;   APACO  = 16.0  distance and # of slots for P.C.
   PSTRESS=    0.0 pullay stress

  Mass of Ions in am
   POMASS =  58.69
  Ionic Valenz
   ZVAL   =  10.00
  Atomic Wigner-Seitz radii
   RWIGS  =  -1.00
  virtual crystal weights 
   VCA    =   1.00
   NELECT =      40.0000    total number of electrons
   NUPDOWN=      -1.0000    fix difference up-down

 DOS related values:
   EMIN   =  10.00;   EMAX   =-10.00  energy-range for DOS
   EFERMI =   0.00
   ISMEAR =     1;   SIGMA  =   0.20  broadening in eV -4-tet -1-fermi 0-gaus

 Electronic relaxation 2 (details)
   IALGO  =     38    algorithm
   LDIAG  =      T    sub-space diagonalisation (order eigenvalues)
   LSUBROT=      F    optimize rotation matrix (better conditioning)
   TURBO    =      0    0=normal 1=particle mesh
   IRESTART =      0    0=no restart 2=restart with 2 vectors
   NREBOOT  =      0    no. of reboots
   NMIN     =      0    reboot dimension
   EREF     =   0.00    reference energy to select bands
   IMIX   =      4    mixing-type and parameters
     AMIX     =   0.40;   BMIX     =  1.00
     AMIX_MAG =   1.60;   BMIX_MAG =  1.00
     AMIN     =   0.10
     WC   =   100.;   INIMIX=   1;  MIXPRE=   1;  MAXMIX= -45

 Intra band minimization:
   WEIMIN = 0.0000     energy-eigenvalue tresh-hold
   EBREAK =  0.10E-07  absolut break condition
   DEPER  =   0.30     relativ break condition  

   TIME   =   0.40     timestep for ELM

  volume/ion in A,a.u.               =      10.74        72.49
  Fermi-wavevector in a.u.,A,eV,Ry     =   1.598477  3.020684 34.764640  2.555129
  Thomas-Fermi vector in A             =   2.695921
 
 Write flags
   LWAVE        =      F    write WAVECAR
   LDOWNSAMPLE  =      F    k-point downsampling of WAVECAR
   LCHARG       =      F    write CHGCAR
   LVTOT        =      F    write LOCPOT, total local potential
   LVHAR        =      F    write LOCPOT, Hartree potential only
   LELF         =      F    write electronic localiz. function (ELF)
   LORBIT       =     11    0 simple, 1 ext, 2 COOP (PROOUT), +10 PAW based schemes


 Dipole corrections
   LMONO  =      F    monopole corrections only (constant potential shift)
   LDIPOL =      F    correct potential (dipole corrections)
   IDIPOL =      0    1-x, 2-y, 3-z, 4-all directions 
   EPSILON=  1.0000000 bulk dielectric constant

 Exchange correlation treatment:
   GGA     =    --    GGA type
   LEXCH   =     8    internal setting for exchange type
   VOSKOWN=      0    Vosko Wilk Nusair interpolation
   LHFCALC =     F    Hartree Fock is set to
   LHFONE  =     F    Hartree Fock one center treatment
   AEXX    =    0.0000 exact exchange contribution

 Linear response parameters
   LEPSILON=     F    determine dielectric tensor
   LRPA    =     F    only Hartree local field effects (RPA)
   LNABLA  =     F    use nabla operator in PAW spheres
   LVEL    =     F    velocity operator in full k-point grid
   LINTERFAST=   F  fast interpolation
   KINTER  =     0    interpolate to denser k-point grid
   CSHIFT  =0.1000    complex shift for real part using Kramers Kronig
   OMEGAMAX=  -1.0    maximum frequency
   DEG_THRESHOLD= 0.2000000E-02 threshold for treating states as degnerate
   RTIME   =   -0.100 relaxation time in fs
  (WPLASMAI=    0.000 imaginary part of plasma frequency in eV, 0.658/RTIME)
   DFIELD  = 0.0000000 0.0000000 0.0000000 field for delta impulse in time
 
 Orbital magnetization related:
   ORBITALMAG=     F  switch on orbital magnetization
   LCHIMAG   =     F  perturbation theory with respect to B field
   DQ        =  0.001000  dq finite difference perturbation B field
   LLRAUG    =     F  two centre corrections for induced B field



--------------------------------------------------------------------------------------------------------


 Static calculation
 charge density and potential will be updated during run
 spin polarized calculation
 Variant of blocked Davidson
 Davidson routine will perform the subspace rotation
 perform sub-space diagonalisation
    after iterative eigenvector-optimisation
 modified Broyden-mixing scheme, WC =      100.0
 initial mixing is a Kerker type mixing with AMIX =  0.4000 and BMIX =      1.0000
 Hartree-type preconditioning will be used
 using additional bands            4
 reciprocal scheme for non local part
 use partial core corrections
 calculate Harris-corrections to forces 
   (improved forces if not selfconsistent)
 use gradient corrections 
 use of overlap-Matrix (Vanderbilt PP)
 Methfessel and Paxton  Order N= 1 SIGMA  =   0.20


--------------------------------------------------------------------------------------------------------


  energy-cutoff  :      520.00
  volume of cell :       42.97
      direct lattice vectors                 reciprocal lattice vectors
     2.476700100  0.000000000  0.000000000     0.403763056 -0.233112700 -0.041208889
     1.238350000  2.144885200  0.000000000     0.000000000  0.466225418 -0.041208895
     1.238349900  0.714961720  8.088868400     0.000000000  0.000000000  0.123626687

  length of vectors
     2.476700100  2.476700071  8.214284675     0.468043063  0.468043068  0.123626687


 
 k-points in units of 2pi/SCALE and weight: k-points                                
   0.00000000  0.00000000  0.00000000       0.001
   0.03670573 -0.02119206 -0.00374626       0.005
   0.07341146 -0.04238413 -0.00749253       0.005
   0.11011720 -0.06357619 -0.01123879       0.005
   0.14682293 -0.08476825 -0.01498505       0.005
   0.18352866 -0.10596032 -0.01873131       0.005
   0.03670573  0.02119207 -0.00749253       0.005
   0.07341146  0.00000000 -0.01123879       0.009
   0.11011720 -0.02119206 -0.01498505       0.009
   0.14682293 -0.04238413 -0.01873131       0.009
   0.18352866 -0.06357619 -0.02247758       0.009
  -0.18352866  0.14834445  0.01498505       0.009
  -0.14682293  0.12715238  0.01123879       0.009
  -0.11011720  0.10596032  0.00749252       0.009
  -0.07341146  0.08476826  0.00374626       0.009
  -0.03670573  0.06357619 -0.00000000       0.005
   0.07341146  0.04238413 -0.01498505       0.005
   0.11011720  0.02119207 -0.01873131       0.009
   0.14682293  0.00000000 -0.02247758       0.009
   0.18352866 -0.02119206 -0.02622384       0.009
  -0.18352866  0.19072858  0.01123879       0.009
  -0.14682293  0.16953651  0.00749252       0.009
  -0.11011720  0.14834445  0.00374626       0.009
  -0.07341146  0.12715239 -0.00000000       0.005
   0.11011720  0.06357620 -0.02247758       0.005
   0.14682293  0.04238413 -0.02622384       0.009
   0.18352866  0.02119207 -0.02997010       0.009
  -0.18352866  0.23311270  0.00749252       0.009
  -0.14682293  0.21192064  0.00374626       0.009
  -0.11011720  0.19072858 -0.00000000       0.005
   0.14682293  0.08476826 -0.02997010       0.005
   0.18352866  0.06357620 -0.03371637       0.009
  -0.18352866  0.27549683  0.00374626       0.009
  -0.14682293  0.25430477 -0.00000000       0.005
   0.18352866  0.10596033 -0.03746263       0.005
  -0.18352866  0.31788096 -0.00000000       0.005
   0.00000000  0.00000000  0.01123879       0.002
   0.07341146 -0.04238413  0.00374626       0.005
   0.11011720 -0.06357619  0.00000000       0.005
   0.14682293 -0.08476825 -0.00374626       0.005
   0.18352866 -0.10596032 -0.00749252       0.005
  -0.18352866  0.10596032  0.02997010       0.005
  -0.14682293  0.08476825  0.02622384       0.005
  -0.11011720  0.06357619  0.02247758       0.005
  -0.07341146  0.04238413  0.01873132       0.005
  -0.03670573  0.02119206  0.01498505       0.005
   0.11011720  0.02119207 -0.00749252       0.009
   0.14682293  0.00000000 -0.01123879       0.009
   0.18352866 -0.02119206 -0.01498505       0.009
  -0.18352866  0.19072858  0.02247758       0.009
   0.11011720  0.06357620 -0.01123879       0.005
   0.14682293  0.04238413 -0.01498505       0.009
   0.18352866  0.02119207 -0.01873131       0.009
  -0.18352866  0.23311270  0.01873131       0.009
  -0.14682293  0.21192064  0.01498505       0.009
  -0.11011720  0.19072858  0.01123879       0.009
  -0.07341146  0.16953651  0.00749253       0.009
  -0.03670573  0.14834445  0.00374626       0.009
   0.14682293  0.08476826 -0.01873131       0.005
   0.18352866  0.06357620 -0.02247758       0.009
  -0.18352866  0.27549683  0.01498505       0.009
  -0.14682293  0.25430477  0.01123879       0.009
  -0.11011720  0.23311271  0.00749253       0.009
  -0.07341146  0.21192064  0.00374626       0.009
  -0.03670573  0.19072858 -0.00000000       0.009
   0.18352866  0.10596033 -0.02622384       0.005
  -0.18352866  0.31788096  0.01123879       0.009
  -0.14682293  0.29668890  0.00749252       0.009
  -0.11011720  0.27549684  0.00374626       0.009
  -0.07341146  0.25430477 -0.00000000       0.009
  -0.03670573  0.23311271 -0.00374626       0.009
  -0.18352866 -0.10596033  0.04870142       0.005
  -0.14682293 -0.12715239  0.04495516       0.009
  -0.11011720 -0.14834445  0.04120889       0.009
  -0.07341146 -0.16953652  0.03746263       0.009
  -0.03670573 -0.19072858  0.03371637       0.009
  -0.14682293 -0.08476826  0.04120889       0.005
  -0.11011720 -0.10596032  0.03746263       0.009
  -0.07341146 -0.12715239  0.03371637       0.009
  -0.03670573 -0.14834445  0.02997011       0.009
  -0.11011720 -0.06357620  0.03371637       0.005
  -0.07341146 -0.08476826  0.02997010       0.009
  -0.03670573 -0.10596032  0.02622384       0.009
  -0.07341146 -0.04238413  0.02622384       0.005
  -0.03670573 -0.06357619  0.02247758       0.009
  -0.03670573 -0.02119207  0.01873132       0.005
   0.00000000  0.00000000  0.02247758       0.002
   0.14682293 -0.08476825  0.00749253       0.005
   0.18352866 -0.10596032  0.00374627       0.005
  -0.18352866  0.10596032  0.04120889       0.005
  -0.14682293  0.08476825  0.03746263       0.005
  -0.11011720  0.06357619  0.03371637       0.005
  -0.07341146  0.04238413  0.02997010       0.005
  -0.03670573  0.02119206  0.02622384       0.005
   0.18352866  0.06357620 -0.01123879       0.009
  -0.18352866  0.27549683  0.02622384       0.009
  -0.14682293  0.25430477  0.02247758       0.009
   0.18352866  0.10596033 -0.01498505       0.005
  -0.18352866  0.31788096  0.02247758       0.009
  -0.14682293  0.29668890  0.01873131       0.009
  -0.11011720  0.27549684  0.01498505       0.009
  -0.07341146  0.25430477  0.01123879       0.009
  -0.03670573  0.23311271  0.00749253       0.009
  -0.18352866 -0.10596033  0.05994021       0.005
  -0.14682293 -0.12715239  0.05619395       0.009
  -0.11011720 -0.14834445  0.05244768       0.009
  -0.07341146 -0.16953652  0.04870142       0.009
  -0.03670573 -0.19072858  0.04495516       0.009
  -0.14682293 -0.08476826  0.05244768       0.005
  -0.11011720 -0.10596032  0.04870142       0.009
  -0.07341146 -0.12715239  0.04495516       0.009
  -0.03670573 -0.14834445  0.04120889       0.009
  -0.11011720 -0.06357620  0.04495516       0.005
  -0.07341146 -0.08476826  0.04120889       0.009
  -0.03670573 -0.10596032  0.03746263       0.009
  -0.07341146 -0.04238413  0.03746263       0.005
  -0.03670573 -0.06357619  0.03371637       0.009
  -0.03670573 -0.02119207  0.02997011       0.005
   0.00000000  0.00000000  0.03371637       0.002
  -0.18352866  0.10596032  0.05244768       0.005
  -0.14682293  0.08476825  0.04870142       0.005
  -0.11011720  0.06357619  0.04495516       0.005
  -0.07341146  0.04238413  0.04120889       0.005
  -0.03670573  0.02119206  0.03746263       0.005
  -0.14682293 -0.12715239  0.06743274       0.009
  -0.11011720 -0.14834445  0.06368647       0.009
  -0.14682293 -0.08476826  0.06368647       0.005
  -0.11011720 -0.10596032  0.05994021       0.009
  -0.07341146 -0.12715239  0.05619395       0.009
  -0.03670573 -0.14834445  0.05244768       0.009
  -0.11011720 -0.06357620  0.05619395       0.005
  -0.07341146 -0.08476826  0.05244768       0.009
  -0.03670573 -0.10596032  0.04870142       0.009
  -0.07341146 -0.04238413  0.04870142       0.005
  -0.03670573 -0.06357619  0.04495516       0.009
  -0.03670573 -0.02119207  0.04120889       0.005
   0.00000000  0.00000000  0.04495516       0.002
  -0.11011720  0.06357619  0.05619395       0.005
  -0.07341146  0.04238413  0.05244768       0.005
  -0.03670573  0.02119206  0.04870142       0.005
  -0.07341146 -0.08476826  0.06368647       0.009
  -0.07341146 -0.04238413  0.05994021       0.005
  -0.03670573 -0.06357619  0.05619395       0.009
  -0.03670573 -0.02119207  0.05244768       0.005
   0.00000000  0.00000000  0.05619395       0.002
  -0.03670573  0.02119206  0.05994021       0.005
 
 k-points in reciprocal lattice and weights: k-points                                
   0.00000000  0.00000000  0.00000000       0.001
   0.09090909  0.00000000  0.00000000       0.005
   0.18181818  0.00000000  0.00000000       0.005
   0.27272727  0.00000000 -0.00000000       0.005
   0.36363636  0.00000000  0.00000000       0.005
   0.45454545  0.00000000  0.00000000       0.005
   0.09090909  0.09090909  0.00000000       0.005
   0.18181818  0.09090909  0.00000000       0.009
   0.27272727  0.09090909 -0.00000000       0.009
   0.36363636  0.09090909  0.00000000       0.009
   0.45454545  0.09090909  0.00000000       0.009
  -0.45454545  0.09090909  0.00000000       0.009
  -0.36363636  0.09090909 -0.00000000       0.009
  -0.27272727  0.09090909  0.00000000       0.009
  -0.18181818  0.09090909 -0.00000000       0.009
  -0.09090909  0.09090909 -0.00000000       0.005
   0.18181818  0.18181818  0.00000000       0.005
   0.27272727  0.18181818  0.00000000       0.009
   0.36363636  0.18181818  0.00000000       0.009
   0.45454545  0.18181818  0.00000000       0.009
  -0.45454545  0.18181818 -0.00000000       0.009
  -0.36363636  0.18181818 -0.00000000       0.009
  -0.27272727  0.18181818 -0.00000000       0.009
  -0.18181818  0.18181818 -0.00000000       0.005
   0.27272727  0.27272727  0.00000000       0.005
   0.36363636  0.27272727  0.00000000       0.009
   0.45454545  0.27272727  0.00000000       0.009
  -0.45454545  0.27272727 -0.00000000       0.009
  -0.36363636  0.27272727 -0.00000000       0.009
  -0.27272727  0.27272727  0.00000000       0.005
   0.36363636  0.36363636  0.00000000       0.005
   0.45454545  0.36363636  0.00000000       0.009
  -0.45454545  0.36363636  0.00000000       0.009
  -0.36363636  0.36363636 -0.00000000       0.005
   0.45454545  0.45454545  0.00000000       0.005
  -0.45454545  0.45454545 -0.00000000       0.005
   0.00000000  0.00000000  0.09090909       0.002
   0.18181818  0.00000000  0.09090909       0.005
   0.27272727  0.00000000  0.09090909       0.005
   0.36363636  0.00000000  0.09090909       0.005
   0.45454545  0.00000000  0.09090909       0.005
  -0.45454545 -0.00000000  0.09090909       0.005
  -0.36363636 -0.00000000  0.09090909       0.005
  -0.27272727 -0.00000000  0.09090909       0.005
  -0.18181818 -0.00000000  0.09090909       0.005
  -0.09090909 -0.00000000  0.09090909       0.005
   0.27272727  0.18181818  0.09090909       0.009
   0.36363636  0.18181818  0.09090909       0.009
   0.45454545  0.18181818  0.09090909       0.009
  -0.45454545  0.18181818  0.09090909       0.009
   0.27272727  0.27272727  0.09090909       0.005
   0.36363636  0.27272727  0.09090909       0.009
   0.45454545  0.27272727  0.09090909       0.009
  -0.45454545  0.27272727  0.09090909       0.009
  -0.36363636  0.27272727  0.09090909       0.009
  -0.27272727  0.27272727  0.09090909       0.009
  -0.18181818  0.27272727  0.09090909       0.009
  -0.09090909  0.27272727  0.09090909       0.009
   0.36363636  0.36363636  0.09090909       0.005
   0.45454545  0.36363636  0.09090909       0.009
  -0.45454545  0.36363636  0.09090909       0.009
  -0.36363636  0.36363636  0.09090909       0.009
  -0.27272727  0.36363636  0.09090909       0.009
  -0.18181818  0.36363636  0.09090909       0.009
  -0.09090909  0.36363636  0.09090909       0.009
   0.45454545  0.45454545  0.09090909       0.005
  -0.45454545  0.45454545  0.09090909       0.009
  -0.36363636  0.45454545  0.09090909       0.009
  -0.27272727  0.45454545  0.09090909       0.009
  -0.18181818  0.45454545  0.09090909       0.009
  -0.09090909  0.45454545  0.09090909       0.009
  -0.45454545 -0.45454545  0.09090909       0.005
  -0.36363636 -0.45454545  0.09090909       0.009
  -0.27272727 -0.45454545  0.09090909       0.009
  -0.18181818 -0.45454545  0.09090909       0.009
  -0.09090909 -0.45454545  0.09090909       0.009
  -0.36363636 -0.36363636  0.09090909       0.005
  -0.27272727 -0.36363636  0.09090909       0.009
  -0.18181818 -0.36363636  0.09090909       0.009
  -0.09090909 -0.36363636  0.09090909       0.009
  -0.27272727 -0.27272727  0.09090909       0.005
  -0.18181818 -0.27272727  0.09090909       0.009
  -0.09090909 -0.27272727  0.09090909       0.009
  -0.18181818 -0.18181818  0.09090909       0.005
  -0.09090909 -0.18181818  0.09090909       0.009
  -0.09090909 -0.09090909  0.09090909       0.005
   0.00000000  0.00000000  0.18181818       0.002
   0.36363636  0.00000000  0.18181818       0.005
   0.45454545  0.00000000  0.18181818       0.005
  -0.45454545 -0.00000000  0.18181818       0.005
  -0.36363636 -0.00000000  0.18181818       0.005
  -0.27272727 -0.00000000  0.18181818       0.005
  -0.18181818 -0.00000000  0.18181818       0.005
  -0.09090909 -0.00000000  0.18181818       0.005
   0.45454545  0.36363636  0.18181818       0.009
  -0.45454545  0.36363636  0.18181818       0.009
  -0.36363636  0.36363636  0.18181818       0.009
   0.45454545  0.45454545  0.18181818       0.005
  -0.45454545  0.45454545  0.18181818       0.009
  -0.36363636  0.45454545  0.18181818       0.009
  -0.27272727  0.45454545  0.18181818       0.009
  -0.18181818  0.45454545  0.18181818       0.009
  -0.09090909  0.45454545  0.18181818       0.009
  -0.45454545 -0.45454545  0.18181818       0.005
  -0.36363636 -0.45454545  0.18181818       0.009
  -0.27272727 -0.45454545  0.18181818       0.009
  -0.18181818 -0.45454545  0.18181818       0.009
  -0.09090909 -0.45454545  0.18181818       0.009
  -0.36363636 -0.36363636  0.18181818       0.005
  -0.27272727 -0.36363636  0.18181818       0.009
  -0.18181818 -0.36363636  0.18181818       0.009
  -0.09090909 -0.36363636  0.18181818       0.009
  -0.27272727 -0.27272727  0.18181818       0.005
  -0.18181818 -0.27272727  0.18181818       0.009
  -0.09090909 -0.27272727  0.18181818       0.009
  -0.18181818 -0.18181818  0.18181818       0.005
  -0.09090909 -0.18181818  0.18181818       0.009
  -0.09090909 -0.09090909  0.18181818       0.005
   0.00000000  0.00000000  0.27272727       0.002
  -0.45454545 -0.00000000  0.27272727       0.005
  -0.36363636 -0.00000000  0.27272727       0.005
  -0.27272727 -0.00000000  0.27272727       0.005
  -0.18181818 -0.00000000  0.27272727       0.005
  -0.09090909 -0.00000000  0.27272727       0.005
  -0.36363636 -0.45454545  0.27272727       0.009
  -0.27272727 -0.45454545  0.27272727       0.009
  -0.36363636 -0.36363636  0.27272727       0.005
  -0.27272727 -0.36363636  0.27272727       0.009
  -0.18181818 -0.36363636  0.27272727       0.009
  -0.09090909 -0.36363636  0.27272727       0.009
  -0.27272727 -0.27272727  0.27272727       0.005
  -0.18181818 -0.27272727  0.27272727       0.009
  -0.09090909 -0.27272727  0.27272727       0.009
  -0.18181818 -0.18181818  0.27272727       0.005
  -0.09090909 -0.18181818  0.27272727       0.009
  -0.09090909 -0.09090909  0.27272727       0.005
   0.00000000  0.00000000  0.36363636       0.002
  -0.27272727 -0.00000000  0.36363636       0.005
  -0.18181818 -0.00000000  0.36363636       0.005
  -0.09090909 -0.00000000  0.36363636       0.005
  -0.18181818 -0.27272727  0.36363636       0.009
  -0.18181818 -0.18181818  0.36363636       0.005
  -0.09090909 -0.18181818  0.36363636       0.009
  -0.09090909 -0.09090909  0.36363636       0.005
   0.00000000  0.00000000  0.45454545       0.002
  -0.09090909 -0.00000000  0.45454545       0.005
 
 position of ions in fractional coordinates (direct lattice) 
   0.00000000  0.00000000  0.00000000
   0.25000000  0.25000000  0.25000000
   0.50000000  0.50000000  0.50000000
   0.75000000  0.75000000  0.75000000
 
 position of ions in cartesian coordinates  (Angst):
   0.00000000  0.00000000  0.00000000
   1.23835000  0.71496173  2.02221710
   2.47670000  1.42992346  4.04443420
   3.71505000  2.14488519  6.06665130
 


--------------------------------------------------------------------------------------------------------


 k-point  1 :   0.0000 0.0000 0.0000  plane waves:    1147
 k-point  2 :   0.0909 0.0000 0.0000  plane waves:    1163
 k-point  3 :   0.1818 0.0000 0.0000  plane waves:    1179
 k-point  4 :   0.2727 0.0000-0.0000  plane waves:    1170
 k-point  5 :   0.3636 0.0000 0.0000  plane waves:    1161
 k-point  6 :   0.4545 0.0000 0.0000  plane waves:    1150
 k-point  7 :   0.0909 0.0909 0.0000  plane waves:    1171
 k-point  8 :   0.1818 0.0909 0.0000  plane waves:    1164
 k-point  9 :   0.2727 0.0909-0.0000  plane waves:    1170
 k-point 10 :   0.3636 0.0909 0.0000  plane waves:    1163
 k-point 11 :   0.4545 0.0909 0.0000  plane waves:    1151
 k-point 12 :  -0.4545 0.0909 0.0000  plane waves:    1154
 k-point 13 :  -0.3636 0.0909-0.0000  plane waves:    1148
 k-point 14 :  -0.2727 0.0909 0.0000  plane waves:    1158
 k-point 15 :  -0.1818 0.0909-0.0000  plane waves:    1167
 k-point 16 :  -0.0909 0.0909-0.0000  plane waves:    1169
 k-point 17 :   0.1818 0.1818 0.0000  plane waves:    1173
 k-point 18 :   0.2727 0.1818 0.0000  plane waves:    1161
 k-point 19 :   0.3636 0.1818 0.0000  plane waves:    1161
 k-point 20 :   0.4545 0.1818 0.0000  plane waves:    1151
 k-point 21 :  -0.4545 0.1818-0.0000  plane waves:    1146
 k-point 22 :  -0.3636 0.1818-0.0000  plane waves:    1148
 k-point 23 :  -0.2727 0.1818-0.0000  plane waves:    1154
 k-point 24 :  -0.1818 0.1818-0.0000  plane waves:    1157
 k-point 25 :   0.2727 0.2727 0.0000  plane waves:    1167
 k-point 26 :   0.3636 0.2727 0.0000  plane waves:    1159
 k-point 27 :   0.4545 0.2727 0.0000  plane waves:    1150
 k-point 28 :  -0.4545 0.2727-0.0000  plane waves:    1149
 k-point 29 :  -0.3636 0.2727-0.0000  plane waves:    1136
 k-point 30 :  -0.2727 0.2727 0.0000  plane waves:    1139
 k-point 31 :   0.3636 0.3636 0.0000  plane waves:    1153
 k-point 32 :   0.4545 0.3636 0.0000  plane waves:    1150
 k-point 33 :  -0.4545 0.3636 0.0000  plane waves:    1146
 k-point 34 :  -0.3636 0.3636-0.0000  plane waves:    1130
 k-point 35 :   0.4545 0.4545 0.0000  plane waves:    1157
 k-point 36 :  -0.4545 0.4545-0.0000  plane waves:    1148
 k-point 37 :   0.0000 0.0000 0.0909  plane waves:    1158
 k-point 38 :   0.1818 0.0000 0.0909  plane waves:    1173
 k-point 39 :   0.2727 0.0000 0.0909  plane waves:    1168
 k-point 40 :   0.3636 0.0000 0.0909  plane waves:    1164
 k-point 41 :   0.4545 0.0000 0.0909  plane waves:    1152
 k-point 42 :  -0.4545-0.0000 0.0909  plane waves:    1147
 k-point 43 :  -0.3636-0.0000 0.0909  plane waves:    1159
 k-point 44 :  -0.2727-0.0000 0.0909  plane waves:    1172
 k-point 45 :  -0.1818-0.0000 0.0909  plane waves:    1172
 k-point 46 :  -0.0909-0.0000 0.0909  plane waves:    1166
 k-point 47 :   0.2727 0.1818 0.0909  plane waves:    1166
 k-point 48 :   0.3636 0.1818 0.0909  plane waves:    1157
 k-point 49 :   0.4545 0.1818 0.0909  plane waves:    1154
 k-point 50 :  -0.4545 0.1818 0.0909  plane waves:    1151
 k-point 51 :   0.2727 0.2727 0.0909  plane waves:    1165
 k-point 52 :   0.3636 0.2727 0.0909  plane waves:    1155
 k-point 53 :   0.4545 0.2727 0.0909  plane waves:    1152
 k-point 54 :  -0.4545 0.2727 0.0909  plane waves:    1145
 k-point 55 :  -0.3636 0.2727 0.0909  plane waves:    1143
 k-point 56 :  -0.2727 0.2727 0.0909  plane waves:    1145
 k-point 57 :  -0.1818 0.2727 0.0909  plane waves:    1152
 k-point 58 :  -0.0909 0.2727 0.0909  plane waves:    1160
 k-point 59 :   0.3636 0.3636 0.0909  plane waves:    1152
 k-point 60 :   0.4545 0.3636 0.0909  plane waves:    1148
 k-point 61 :  -0.4545 0.3636 0.0909  plane waves:    1148
 k-point 62 :  -0.3636 0.3636 0.0909  plane waves:    1133
 k-point 63 :  -0.2727 0.3636 0.0909  plane waves:    1140
 k-point 64 :  -0.1818 0.3636 0.0909  plane waves:    1151
 k-point 65 :  -0.0909 0.3636 0.0909  plane waves:    1145
 k-point 66 :   0.4545 0.4545 0.0909  plane waves:    1147
 k-point 67 :  -0.4545 0.4545 0.0909  plane waves:    1154
 k-point 68 :  -0.3636 0.4545 0.0909  plane waves:    1143
 k-point 69 :  -0.2727 0.4545 0.0909  plane waves:    1152
 k-point 70 :  -0.1818 0.4545 0.0909  plane waves:    1152
 k-point 71 :  -0.0909 0.4545 0.0909  plane waves:    1152
 k-point 72 :  -0.4545-0.4545 0.0909  plane waves:    1157
 k-point 73 :  -0.3636-0.4545 0.0909  plane waves:    1148
 k-point 74 :  -0.2727-0.4545 0.0909  plane waves:    1149
 k-point 75 :  -0.1818-0.4545 0.0909  plane waves:    1154
 k-point 76 :  -0.0909-0.4545 0.0909  plane waves:    1155
 k-point 77 :  -0.3636-0.3636 0.0909  plane waves:    1152
 k-point 78 :  -0.2727-0.3636 0.0909  plane waves:    1161
 k-point 79 :  -0.1818-0.3636 0.0909  plane waves:    1159
 k-point 80 :  -0.0909-0.3636 0.0909  plane waves:    1169
 k-point 81 :  -0.2727-0.2727 0.0909  plane waves:    1165
 k-point 82 :  -0.1818-0.2727 0.0909  plane waves:    1167
 k-point 83 :  -0.0909-0.2727 0.0909  plane waves:    1172
 k-point 84 :  -0.1818-0.1818 0.0909  plane waves:    1173
 k-point 85 :  -0.0909-0.1818 0.0909  plane waves:    1169
 k-point 86 :  -0.0909-0.0909 0.0909  plane waves:    1176
 k-point 87 :   0.0000 0.0000 0.1818  plane waves:    1155
 k-point 88 :   0.3636 0.0000 0.1818  plane waves:    1151
 k-point 89 :   0.4545 0.0000 0.1818  plane waves:    1149
 k-point 90 :  -0.4545-0.0000 0.1818  plane waves:    1155
 k-point 91 :  -0.3636-0.0000 0.1818  plane waves:    1167
 k-point 92 :  -0.2727-0.0000 0.1818  plane waves:    1167
 k-point 93 :  -0.1818-0.0000 0.1818  plane waves:    1174
 k-point 94 :  -0.0909-0.0000 0.1818  plane waves:    1167
 k-point 95 :   0.4545 0.3636 0.1818  plane waves:    1148
 k-point 96 :  -0.4545 0.3636 0.1818  plane waves:    1152
 k-point 97 :  -0.3636 0.3636 0.1818  plane waves:    1135
 k-point 98 :   0.4545 0.4545 0.1818  plane waves:    1148
 k-point 99 :  -0.4545 0.4545 0.1818  plane waves:    1155
 k-point ** :  -0.3636 0.4545 0.1818  plane waves:    1151
 k-point ** :  -0.2727 0.4545 0.1818  plane waves:    1145
 k-point ** :  -0.1818 0.4545 0.1818  plane waves:    1147
 k-point ** :  -0.0909 0.4545 0.1818  plane waves:    1152
 k-point ** :  -0.4545-0.4545 0.1818  plane waves:    1159
 k-point ** :  -0.3636-0.4545 0.1818  plane waves:    1154
 k-point ** :  -0.2727-0.4545 0.1818  plane waves:    1151
 k-point ** :  -0.1818-0.4545 0.1818  plane waves:    1150
 k-point ** :  -0.0909-0.4545 0.1818  plane waves:    1151
 k-point ** :  -0.3636-0.3636 0.1818  plane waves:    1158
 k-point ** :  -0.2727-0.3636 0.1818  plane waves:    1160
 k-point ** :  -0.1818-0.3636 0.1818  plane waves:    1156
 k-point ** :  -0.0909-0.3636 0.1818  plane waves:    1169
 k-point ** :  -0.2727-0.2727 0.1818  plane waves:    1167
 k-point ** :  -0.1818-0.2727 0.1818  plane waves:    1170
 k-point ** :  -0.0909-0.2727 0.1818  plane waves:    1166
 k-point ** :  -0.1818-0.1818 0.1818  plane waves:    1166
 k-point ** :  -0.0909-0.1818 0.1818  plane waves:    1171
 k-point ** :  -0.0909-0.0909 0.1818  plane waves:    1170
 k-point ** :   0.0000 0.0000 0.2727  plane waves:    1158
 k-point ** :  -0.4545-0.0000 0.2727  plane waves:    1154
 k-point ** :  -0.3636-0.0000 0.2727  plane waves:    1156
 k-point ** :  -0.2727-0.0000 0.2727  plane waves:    1169
 k-point ** :  -0.1818-0.0000 0.2727  plane waves:    1170
 k-point ** :  -0.0909-0.0000 0.2727  plane waves:    1166
 k-point ** :  -0.3636-0.4545 0.2727  plane waves:    1156
 k-point ** :  -0.2727-0.4545 0.2727  plane waves:    1150
 k-point ** :  -0.3636-0.3636 0.2727  plane waves:    1155
 k-point ** :  -0.2727-0.3636 0.2727  plane waves:    1160
 k-point ** :  -0.1818-0.3636 0.2727  plane waves:    1159
 k-point ** :  -0.0909-0.3636 0.2727  plane waves:    1164
 k-point ** :  -0.2727-0.2727 0.2727  plane waves:    1165
 k-point ** :  -0.1818-0.2727 0.2727  plane waves:    1172
 k-point ** :  -0.0909-0.2727 0.2727  plane waves:    1170
 k-point ** :  -0.1818-0.1818 0.2727  plane waves:    1169
 k-point ** :  -0.0909-0.1818 0.2727  plane waves:    1168
 k-point ** :  -0.0909-0.0909 0.2727  plane waves:    1168
 k-point ** :   0.0000 0.0000 0.3636  plane waves:    1158
 k-point ** :  -0.2727-0.0000 0.3636  plane waves:    1165
 k-point ** :  -0.1818-0.0000 0.3636  plane waves:    1165
 k-point ** :  -0.0909-0.0000 0.3636  plane waves:    1170
 k-point ** :  -0.1818-0.2727 0.3636  plane waves:    1169
 k-point ** :  -0.1818-0.1818 0.3636  plane waves:    1163
 k-point ** :  -0.0909-0.1818 0.3636  plane waves:    1162
 k-point ** :  -0.0909-0.0909 0.3636  plane waves:    1166
 k-point ** :   0.0000 0.0000 0.4545  plane waves:    1164
 k-point ** :  -0.0909-0.0000 0.4545  plane waves:    1171

 maximum and minimum number of plane-waves per node :      1179     1130

 maximum number of plane-waves:      1179
 maximum index in each direction: 
   IXMAX=    5   IYMAX=    5   IZMAX=   15
   IXMIN=   -5   IYMIN=   -5   IZMIN=  -15


 serial   3D FFT for wavefunctions
 parallel 3D FFT for charge:
    minimum data exchange during FFTs selected (reduces bandwidth)


 total amount of memory used by VASP MPI-rank0    76895. kBytes
=======================================================================

   base      :      30000. kBytes
   nonl-proj :      24968. kBytes
   fftplans  :        851. kBytes
   grid      :       3348. kBytes
   one-center:        124. kBytes
   wavefun   :      17604. kBytes
 
     INWAV:  cpu time    0.0000: real time    0.0001
 Broyden mixing: mesh for mixing (old mesh)
   NGX =  9   NGY =  9   NGZ = 31
  (NGX  = 36   NGY  = 36   NGZ  =128)
  gives a total of   2511 points

 initial charge density was supplied:
 charge density of overlapping atoms calculated
 number of electron      40.0000000 magnetization       0.0000000
 keeping initial charge density in first step


--------------------------------------------------------------------------------------------------------


 Maximum index for augmentation-charges         2240 (set IRDMAX)


--------------------------------------------------------------------------------------------------------


 First call to EWALD:  gamma=   0.506
 Maximum number of real-space cells 4x 4x 1
 Maximum number of reciprocal cells 2x 2x 6

    FEWALD:  cpu time    0.0013: real time    0.0013


--------------------------------------- Iteration      1(   1)  ---------------------------------------


    POTLOK:  cpu time    0.0294: real time    0.0338
    SETDIJ:  cpu time    0.5441: real time    0.5456
     EDDAV:  cpu time    2.8332: real time    2.8611
       DOS:  cpu time    0.0039: real time    0.0039
    --------------------------------------------
      LOOP:  cpu time    3.4106: real time    3.4444

 eigenvalue-minimisations  : 14248
 total energy-change (2. order) : 0.2495997E+03  (-0.1858959E+04)
 number of electron      40.0000000 magnetization      -0.0000000
 augmentation part       40.0000000 magnetization      -0.0000000

 Free energy of the ion-electron system (eV)
  ---------------------------------------------------
  alpha Z        PSCENC =       189.89774773
  Ewald energy   TEWEN  =     -3769.84881827
  -Hartree energ DENC   =      -972.41975722
  -exchange      EXHF   =         0.00000000
  -V(xc)+E(xc)   XCENC  =       127.25556326
  PAW double counting   =      3851.33269441    -4118.68284910
  entropy T*S    EENTRO =         0.00205585
  eigenvalues    EBANDS =       631.37939574
  atomic energy  EATOM  =      4310.68367761
  Solvation  Ediel_sol  =         0.00000000
  ---------------------------------------------------
  free energy    TOTEN  =       249.59971001 eV

  energy without entropy =      249.59765416  energy(sigma->0) =      249.59902473


--------------------------------------------------------------------------------------------------------




--------------------------------------- Iteration      1(   2)  ---------------------------------------


     EDDAV:  cpu time    2.8292: real time    2.8440
       DOS:  cpu time    0.0056: real time    0.0056
    --------------------------------------------
      LOOP:  cpu time    2.8348: real time    2.8496

 eigenvalue-minimisations  : 14288
 total energy-change (2. order) :-0.2612999E+03  (-0.2556803E+03)
 number of electron      40.0000000 magnetization      -0.0000000
 augmentation part       40.0000000 magnetization      -0.0000000

 Free energy of the ion-electron system (eV)
  ---------------------------------------------------
  alpha Z        PSCENC =       189.89774773
  Ewald energy   TEWEN  =     -3769.84881827
  -Hartree energ DENC   =      -972.41975722
  -exchange      EXHF   =         0.00000000
  -V(xc)+E(xc)   XCENC  =       127.25556326
  PAW double counting   =      3851.33269441    -4118.68284910
  entropy T*S    EENTRO =        -0.00283407
  eigenvalues    EBANDS =       370.08436510
  atomic energy  EATOM  =      4310.68367761
  Solvation  Ediel_sol  =         0.00000000
  ---------------------------------------------------
  free energy    TOTEN  =       -11.70021055 eV

  energy without entropy =      -11.69737648  energy(sigma->0) =      -11.69926586


--------------------------------------------------------------------------------------------------------




--------------------------------------- Iteration      1(   3)  ---------------------------------------


     EDDAV:  cpu time    2.9070: real time    2.9160
       DOS:  cpu time    0.0057: real time    0.0057
    --------------------------------------------
      LOOP:  cpu time    2.9126: real time    2.9217

 eigenvalue-minimisations  : 14864
 total energy-change (2. order) :-0.1384216E+02  (-0.1345830E+02)
 number of electron      40.0000000 magnetization      -0.0000000
 augmentation part       40.0000000 magnetization      -0.0000000

 Free energy of the ion-electron system (eV)
  ---------------------------------------------------
  alpha Z        PSCENC =       189.89774773
  Ewald energy   TEWEN  =     -3769.84881827
  -Hartree energ DENC   =      -972.41975722
  -exchange      EXHF   =         0.00000000
  -V(xc)+E(xc)   XCENC  =       127.25556326
  PAW double counting   =      3851.33269441    -4118.68284910
  entropy T*S    EENTRO =        -0.01432707
  eigenvalues    EBANDS =       356.25369433
  atomic energy  EATOM  =      4310.68367761
  Solvation  Ediel_sol  =         0.00000000
  ---------------------------------------------------
  free energy    TOTEN  =       -25.54237432 eV

  energy without entropy =      -25.52804725  energy(sigma->0) =      -25.53759863


--------------------------------------------------------------------------------------------------------




--------------------------------------- Iteration      1(   4)  ---------------------------------------


     EDDAV:  cpu time    2.9690: real time    2.9783
       DOS:  cpu time    0.0058: real time    0.0058
    --------------------------------------------
      LOOP:  cpu time    2.9748: real time    2.9841

 eigenvalue-minimisations  : 15496
 total energy-change (2. order) :-0.2472542E+00  (-0.2457959E+00)
 number of electron      40.0000000 magnetization      -0.0000000
 augmentation part       40.0000000 magnetization      -0.0000000

 Free energy of the ion-electron system (eV)
  ---------------------------------------------------
  alpha Z        PSCENC =       189.89774773
  Ewald energy   TEWEN  =     -3769.84881827
  -Hartree energ DENC   =      -972.41975722
  -exchange      EXHF   =         0.00000000
  -V(xc)+E(xc)   XCENC  =       127.25556326
  PAW double counting   =      3851.33269441    -4118.68284910
  entropy T*S    EENTRO =        -0.01433003
  eigenvalues    EBANDS =       356.00644306
  atomic energy  EATOM  =      4310.68367761
  Solvation  Ediel_sol  =         0.00000000
  ---------------------------------------------------
  free energy    TOTEN  =       -25.78962855 eV

  energy without entropy =      -25.77529852  energy(sigma->0) =      -25.78485187


--------------------------------------------------------------------------------------------------------




--------------------------------------- Iteration      1(   5)  ---------------------------------------


     EDDAV:  cpu time    3.2056: real time    3.2140
       DOS:  cpu time    0.0055: real time    0.0055
    CHARGE:  cpu time    0.2534: real time    0.2540
    MIXING:  cpu time    0.0007: real time    0.0007
    --------------------------------------------
      LOOP:  cpu time    3.4651: real time    3.4743

 eigenvalue-minimisations  : 17072
 total energy-change (2. order) :-0.6247319E-02  (-0.6246730E-02)
 number of electron      39.9999974 magnetization      -0.0000000
 augmentation part       22.4363866 magnetization      -0.0000000

 Broyden mixing:
  rms(total) = 0.23903E+01    rms(broyden)= 0.23903E+01
  rms(prec ) = 0.28418E+01
  weight for this iteration     100.00

 Free energy of the ion-electron system (eV)
  ---------------------------------------------------
  alpha Z        PSCENC =       189.89774773
  Ewald energy   TEWEN  =     -3769.84881827
  -Hartree energ DENC   =      -972.41975722
  -exchange      EXHF   =         0.00000000
  -V(xc)+E(xc)   XCENC  =       127.25556326
  PAW double counting   =      3851.33269441    -4118.68284910
  entropy T*S    EENTRO =        -0.01433717
  eigenvalues    EBANDS =       356.00020288
  atomic energy  EATOM  =      4310.68367761
  Solvation  Ediel_sol  =         0.00000000
  ---------------------------------------------------
  free energy    TOTEN  =       -25.79587587 eV

  energy without entropy =      -25.78153870  energy(sigma->0) =      -25.79109681


--------------------------------------------------------------------------------------------------------




--------------------------------------- Iteration      1(   6)  ---------------------------------------


    POTLOK:  cpu time    0.0267: real time    0.0268
    SETDIJ:  cpu time    0.5667: real time    0.5681
     EDDAV:  cpu time    2.7725: real time    2.7841
       DOS:  cpu time    0.0058: real time    0.0059
    CHARGE:  cpu time    0.2702: real time    0.2709
    MIXING:  cpu time    0.0008: real time    0.0008
    --------------------------------------------
      LOOP:  cpu time    3.6428: real time    3.6565

 eigenvalue-minimisations  : 14016
 total energy-change (2. order) : 0.3222281E+01  (-0.5409859E+01)
 number of electron      39.9999970 magnetization      -0.0000000
 augmentation part       25.9762124 magnetization      -0.0000000

 Broyden mixing:
  rms(total) = 0.13283E+01    rms(broyden)= 0.13282E+01
  rms(prec ) = 0.15011E+01
  weight for this iteration     100.00

 eigenvalues of (default mixing * dielectric matrix)
  average eigenvalue GAMMA=   0.6952
  0.6952

 Free energy of the ion-electron system (eV)
  ---------------------------------------------------
  alpha Z        PSCENC =       189.89774773
  Ewald energy   TEWEN  =     -3769.84881827
  -Hartree energ DENC   =      -876.14509407
  -exchange      EXHF   =         0.00000000
  -V(xc)+E(xc)   XCENC  =       122.10542896
  PAW double counting   =      4127.55827067    -4377.44069305
  entropy T*S    EENTRO =        -0.04881320
  eigenvalues    EBANDS =       250.66469890
  atomic energy  EATOM  =      4310.68367761
  Solvation  Ediel_sol  =         0.00000000
  ---------------------------------------------------
  free energy    TOTEN  =       -22.57359473 eV

  energy without entropy =      -22.52478152  energy(sigma->0) =      -22.55732366


--------------------------------------------------------------------------------------------------------




--------------------------------------- Iteration      1(   7)  ---------------------------------------


    POTLOK:  cpu time    0.0258: real time    0.0261
    SETDIJ:  cpu time    0.5755: real time    0.5770
     EDDAV:  cpu time    2.9950: real time    3.0044
       DOS:  cpu time    0.0058: real time    0.0058
    CHARGE:  cpu time    0.2759: real time    0.2768
    MIXING:  cpu time    0.0008: real time    0.0008
    --------------------------------------------
      LOOP:  cpu time    3.8789: real time    3.8910

 eigenvalue-minimisations  : 15544
 total energy-change (2. order) : 0.8983381E+00  (-0.9754589E+00)
 number of electron      39.9999972 magnetization       0.0000000
 augmentation part       24.4755282 magnetization       0.0000000

 Broyden mixing:
  rms(total) = 0.36564E+00    rms(broyden)= 0.36562E+00
  rms(prec ) = 0.40976E+00
  weight for this iteration     100.00

 eigenvalues of (default mixing * dielectric matrix)
  average eigenvalue GAMMA=   1.0661
  1.4837  0.6485

 Free energy of the ion-electron system (eV)
  ---------------------------------------------------
  alpha Z        PSCENC =       189.89774773
  Ewald energy   TEWEN  =     -3769.84881827
  -Hartree energ DENC   =      -906.23640708
  -exchange      EXHF   =         0.00000000
  -V(xc)+E(xc)   XCENC  =       123.46992530
  PAW double counting   =      4284.24733538    -4549.93721206
  entropy T*S    EENTRO =        -0.05403803
  eigenvalues    EBANDS =       296.10253281
  atomic energy  EATOM  =      4310.68367761
  Solvation  Ediel_sol  =         0.00000000
  ---------------------------------------------------
  free energy    TOTEN  =       -21.67525661 eV

  energy without entropy =      -21.62121858  energy(sigma->0) =      -21.65724393


--------------------------------------------------------------------------------------------------------




--------------------------------------- Iteration      1(   8)  ---------------------------------------


    POTLOK:  cpu time    0.0273: real time    0.0275
    SETDIJ:  cpu time    0.5909: real time    0.5926
     EDDAV:  cpu time    3.0284: real time    3.0363
       DOS:  cpu time    0.0052: real time    0.0052
    CHARGE:  cpu time    0.2667: real time    0.2674
    MIXING:  cpu time    0.0007: real time    0.0007
    --------------------------------------------
      LOOP:  cpu time    3.9191: real time    3.9296

 eigenvalue-minimisations  : 15808
 total energy-change (2. order) : 0.1402171E-01  (-0.2694229E-01)
 number of electron      39.9999972 magnetization       0.0000000
 augmentation part       24.6394494 magnetization       0.0000000

 Broyden mixing:
  rms(total) = 0.11980E+00    rms(broyden)= 0.11980E+00
  rms(prec ) = 0.12592E+00
  weight for this iteration     100.00

 eigenvalues of (default mixing * dielectric matrix)
  average eigenvalue GAMMA=   1.0582
  1.8212  0.6990  0.6545

 Free energy of the ion-electron system (eV)
  ---------------------------------------------------
  alpha Z        PSCENC =       189.89774773
  Ewald energy   TEWEN  =     -3769.84881827
  -Hartree energ DENC   =      -894.84989318
  -exchange      EXHF   =         0.00000000
  -V(xc)+E(xc)   XCENC  =       122.89954468
  PAW double counting   =      4480.90467081    -4751.48212494
  entropy T*S    EENTRO =        -0.05484263
  eigenvalues    EBANDS =       290.18880328
  atomic energy  EATOM  =      4310.68367761
  Solvation  Ediel_sol  =         0.00000000
  ---------------------------------------------------
  free energy    TOTEN  =       -21.66123490 eV

  energy without entropy =      -21.60639228  energy(sigma->0) =      -21.64295403


--------------------------------------------------------------------------------------------------------




--------------------------------------- Iteration      1(   9)  ---------------------------------------


    POTLOK:  cpu time    0.0244: real time    0.0246
    SETDIJ:  cpu time    0.5370: real time    0.5394
     EDDAV:  cpu time    2.9460: real time    2.9547
       DOS:  cpu time    0.0054: real time    0.0054
    CHARGE:  cpu time    0.2722: real time    0.2729
    MIXING:  cpu time    0.0008: real time    0.0008
    --------------------------------------------
      LOOP:  cpu time    3.7858: real time    3.7978

 eigenvalue-minimisations  : 15328
 total energy-change (2. order) : 0.5927472E-02  (-0.4362980E-02)
 number of electron      39.9999972 magnetization       0.0000000
 augmentation part       24.6374714 magnetization       0.0000000

 Broyden mixing:
  rms(total) = 0.46958E-01    rms(broyden)= 0.46958E-01
  rms(prec ) = 0.52938E-01
  weight for this iteration     100.00

 eigenvalues of (default mixing * dielectric matrix)
  average eigenvalue GAMMA=   1.0055
  1.9662  0.7191  0.7191  0.6175

 Free energy of the ion-electron system (eV)
  ---------------------------------------------------
  alpha Z        PSCENC =       189.89774773
  Ewald energy   TEWEN  =     -3769.84881827
  -Hartree energ DENC   =      -892.65292485
  -exchange      EXHF   =         0.00000000
  -V(xc)+E(xc)   XCENC  =       122.80080648
  PAW double counting   =      4543.48021162    -4816.20488027
  entropy T*S    EENTRO =        -0.05535760
  eigenvalues    EBANDS =       290.24423012
  atomic energy  EATOM  =      4310.68367761
  Solvation  Ediel_sol  =         0.00000000
  ---------------------------------------------------
  free energy    TOTEN  =       -21.65530743 eV

  energy without entropy =      -21.59994983  energy(sigma->0) =      -21.63685490


--------------------------------------------------------------------------------------------------------




--------------------------------------- Iteration      1(  10)  ---------------------------------------


    POTLOK:  cpu time    0.0258: real time    0.0261
    SETDIJ:  cpu time    0.5720: real time    0.5733
     EDDAV:  cpu time    3.1005: real time    3.1093
       DOS:  cpu time    0.0059: real time    0.0059
    CHARGE:  cpu time    0.2688: real time    0.2694
    MIXING:  cpu time    0.0009: real time    0.0009
    --------------------------------------------
      LOOP:  cpu time    3.9738: real time    3.9849

 eigenvalue-minimisations  : 16088
 total energy-change (2. order) : 0.2002033E-02  (-0.2562519E-03)
 number of electron      39.9999971 magnetization       0.0000000
 augmentation part       24.6499951 magnetization       0.0000000

 Broyden mixing:
  rms(total) = 0.15243E-01    rms(broyden)= 0.15243E-01
  rms(prec ) = 0.17191E-01
  weight for this iteration     100.00

 eigenvalues of (default mixing * dielectric matrix)
  average eigenvalue GAMMA=   1.2788
  2.5924  1.6126  0.8613  0.6374  0.6901

 Free energy of the ion-electron system (eV)
  ---------------------------------------------------
  alpha Z        PSCENC =       189.89774773
  Ewald energy   TEWEN  =     -3769.84881827
  -Hartree energ DENC   =      -890.98561982
  -exchange      EXHF   =         0.00000000
  -V(xc)+E(xc)   XCENC  =       122.72397259
  PAW double counting   =      4577.37883949    -4851.20696334
  entropy T*S    EENTRO =        -0.05541195
  eigenvalues    EBANDS =       289.75927056
  atomic energy  EATOM  =      4310.68367761
  Solvation  Ediel_sol  =         0.00000000
  ---------------------------------------------------
  free energy    TOTEN  =       -21.65330540 eV

  energy without entropy =      -21.59789344  energy(sigma->0) =      -21.63483475


--------------------------------------------------------------------------------------------------------




--------------------------------------- Iteration      1(  11)  ---------------------------------------


    POTLOK:  cpu time    0.0270: real time    0.0273
    SETDIJ:  cpu time    0.5803: real time    0.5817
     EDDAV:  cpu time    2.9065: real time    2.9150
       DOS:  cpu time    0.0056: real time    0.0056
    CHARGE:  cpu time    0.2623: real time    0.2631
    MIXING:  cpu time    0.0008: real time    0.0008
    --------------------------------------------
      LOOP:  cpu time    3.7825: real time    3.7936

 eigenvalue-minimisations  : 14824
 total energy-change (2. order) :-0.7974387E-04  (-0.7316095E-04)
 number of electron      39.9999971 magnetization       0.0000000
 augmentation part       24.6563615 magnetization       0.0000000

 Broyden mixing:
  rms(total) = 0.47925E-02    rms(broyden)= 0.47925E-02
  rms(prec ) = 0.48369E-02
  weight for this iteration     100.00

 eigenvalues of (default mixing * dielectric matrix)
  average eigenvalue GAMMA=   1.1684
  2.3571  1.6678  0.8338  0.8338  0.6823  0.6358

 Free energy of the ion-electron system (eV)
  ---------------------------------------------------
  alpha Z        PSCENC =       189.89774773
  Ewald energy   TEWEN  =     -3769.84881827
  -Hartree energ DENC   =      -890.16341591
  -exchange      EXHF   =         0.00000000
  -V(xc)+E(xc)   XCENC  =       122.68683162
  PAW double counting   =      4592.94925381    -4867.35775304
  entropy T*S    EENTRO =        -0.05539489
  eigenvalues    EBANDS =       289.55448620
  atomic energy  EATOM  =      4310.68367761
  Solvation  Ediel_sol  =         0.00000000
  ---------------------------------------------------
  free energy    TOTEN  =       -21.65338514 eV

  energy without entropy =      -21.59799025  energy(sigma->0) =      -21.63492018


--------------------------------------------------------------------------------------------------------




--------------------------------------- Iteration      1(  12)  ---------------------------------------


    POTLOK:  cpu time    0.0255: real time    0.0257
    SETDIJ:  cpu time    0.5487: real time    0.5501
     EDDAV:  cpu time    2.9385: real time    2.9473
       DOS:  cpu time    0.0056: real time    0.0056
    CHARGE:  cpu time    0.2628: real time    0.2640
    MIXING:  cpu time    0.0009: real time    0.0009
    --------------------------------------------
      LOOP:  cpu time    3.7820: real time    3.7937

 eigenvalue-minimisations  : 15160
 total energy-change (2. order) :-0.6566223E-05  (-0.9008157E-05)
 number of electron      39.9999971 magnetization       0.0000000
 augmentation part       24.6555560 magnetization       0.0000000

 Broyden mixing:
  rms(total) = 0.22456E-02    rms(broyden)= 0.22456E-02
  rms(prec ) = 0.22898E-02
  weight for this iteration     100.00

 eigenvalues of (default mixing * dielectric matrix)
  average eigenvalue GAMMA=   1.2145
  2.3824  1.7018  1.1838  1.1838  0.7280  0.6781  0.6437

 Free energy of the ion-electron system (eV)
  ---------------------------------------------------
  alpha Z        PSCENC =       189.89774773
  Ewald energy   TEWEN  =     -3769.84881827
  -Hartree energ DENC   =      -890.22150302
  -exchange      EXHF   =         0.00000000
  -V(xc)+E(xc)   XCENC  =       122.68975871
  PAW double counting   =      4591.91135835    -4866.28705682
  entropy T*S    EENTRO =        -0.05538966
  eigenvalues    EBANDS =       289.57683366
  atomic energy  EATOM  =      4310.68367761
  Solvation  Ediel_sol  =         0.00000000
  ---------------------------------------------------
  free energy    TOTEN  =       -21.65339171 eV

  energy without entropy =      -21.59800205  energy(sigma->0) =      -21.63492849


--------------------------------------------------------------------------------------------------------




[...]
     23       9.3207      0.62201
     24       9.8863     -0.00049

 k-point   145 :       0.0000    0.0000    0.4545
  band No.  band energies     occupation 
      1       0.9460      1.00000
      2       1.1633      1.00000
      3       4.3313      1.00000
      4       4.5304      1.00000
      5       7.2940      1.00000
      6       7.3435      1.00000
      7       7.5096      1.00000
      8       7.5096      1.00000
      9       7.5400      1.00000
     10       7.5400      1.00000
     11       7.5836      1.00000
     12       7.5836      1.00000
     13       7.6153      1.00000
     14       7.6191      1.00000
     15       7.6191      1.00000
     16       7.9025      1.00000
     17       8.5484      1.00000
     18       8.5484      1.00000
     19       8.5551      1.00000
     20       8.5551      1.00000
     21       9.0857      1.03421
     22       9.0857      1.03421
     23       9.1585      1.02004
     24       9.1585      1.02004

 k-point   146 :      -0.0909   -0.0000    0.4545
  band No.  band energies     occupation 
      1       1.2949      1.00000
      2       1.3667      1.00000
      3       4.6227      1.00000
      4       4.6786      1.00000
      5       7.1759      1.00000
      6       7.2389      1.00000
      7       7.2918      1.00000
      8       7.3781      1.00000
      9       7.4427      1.00000
     10       7.4938      1.00000
     11       7.6329      1.00000
     12       7.6546      1.00000
     13       7.6582      1.00000
     14       7.6590      1.00000
     15       7.7055      1.00000
     16       7.7124      1.00000
     17       8.3556      1.00000
     18       8.4215      1.00000
     19       8.6573      1.00001
     20       8.6902      1.00002
     21       8.9358      1.00632
     22       9.2680      0.81630
     23       9.5344     -0.01511
     24       9.7066     -0.01507


--------------------------------------------------------------------------------------------------------


 soft charge-density along one line, spin component           1
         0         1         2         3         4         5         6         7         8         9
 total charge-density along one line
 
 soft charge-density along one line, spin component           2
         0         1         2         3         4         5         6         7         8         9
 total charge-density along one line
 
 pseudopotential strength for first ion, spin component:           1
 -0.138  -0.000  -0.000  -0.014  -0.000  -0.836  -0.000  -0.000
 -0.000  -0.131   0.000   0.000  -0.014  -0.000  -0.829   0.000
 -0.000   0.000  -0.150   0.000  -0.000  -0.000   0.000  -0.848
 -0.014   0.000   0.000  -0.131  -0.000  -0.013   0.000   0.000
 -0.000  -0.014  -0.000  -0.000  -0.138  -0.000  -0.013  -0.000
 -0.836  -0.000  -0.000  -0.013  -0.000  -1.461  -0.000  -0.000
 -0.000  -0.829   0.000   0.000  -0.013  -0.000  -1.454   0.000
 -0.000   0.000  -0.848   0.000  -0.000  -0.000   0.000  -1.472
 -0.013   0.000   0.000  -0.829  -0.000  -0.013   0.000   0.000
 -0.000  -0.013  -0.000  -0.000  -0.836  -0.000  -0.013  -0.000
 -0.000  -0.000   0.000   0.000  -0.000  -0.000  -0.000   0.000
 -0.000  -0.000   0.001   0.000  -0.000  -0.000  -0.000   0.001
 -0.000  -0.000   0.000   0.000   0.000  -0.000  -0.000   0.000
  0.000   0.000  -0.000   0.000   0.000   0.000   0.000  -0.000
  0.000   0.000   0.000  -0.000  -0.000   0.000   0.000   0.000
  0.000  -0.000   0.000   0.000   0.000   0.000  -0.000   0.000
  0.000   0.000  -0.000   0.000   0.000   0.000   0.000  -0.000
  0.000   0.000   0.000  -0.000   0.000   0.000   0.000   0.000
 pseudopotential strength for first ion, spin component:           2
 -0.138  -0.000  -0.000  -0.014  -0.000  -0.836  -0.000  -0.000
 -0.000  -0.131   0.000   0.000  -0.014  -0.000  -0.829   0.000
 -0.000   0.000  -0.150   0.000  -0.000  -0.000   0.000  -0.847
 -0.014   0.000   0.000  -0.131  -0.000  -0.013   0.000   0.000
 -0.000  -0.014  -0.000  -0.000  -0.138  -0.000  -0.013  -0.000
 -0.836  -0.000  -0.000  -0.013  -0.000  -1.461  -0.000  -0.000
 -0.000  -0.829   0.000   0.000  -0.013  -0.000  -1.454   0.000
 -0.000   0.000  -0.847   0.000  -0.000  -0.000   0.000  -1.472
 -0.013   0.000   0.000  -0.829  -0.000  -0.013   0.000   0.000
 -0.000  -0.013  -0.000  -0.000  -0.836  -0.000  -0.013  -0.000
 -0.000  -0.000   0.000   0.000  -0.000  -0.000  -0.000   0.000
 -0.000  -0.000   0.001   0.000  -0.000  -0.000  -0.000   0.001
 -0.000   0.000  -0.000  -0.000  -0.000   0.000   0.000  -0.000
 -0.000  -0.000   0.000  -0.000  -0.000  -0.000  -0.000   0.000
 -0.000  -0.000  -0.000   0.000  -0.000  -0.000  -0.000  -0.000
 -0.000   0.000   0.000  -0.000  -0.000  -0.000   0.000  -0.000
 -0.000  -0.000   0.000  -0.000  -0.000  -0.000  -0.000   0.000
 -0.000  -0.000   0.000   0.000  -0.000  -0.000  -0.000  -0.000
 total augmentation occupancy for first ion, spin component:           1
  2.956  -0.000   0.000  -0.409   0.000  -1.347   0.000  -0.000   0.192  -0.000  -0.000  -0.000   0.000   0.000   0.000   0.000
 -0.000   3.220  -0.000  -0.000  -0.409   0.000  -1.467   0.000   0.000   0.192   0.000   0.000   0.000  -0.000  -0.000  -0.000
  0.000  -0.000   2.666  -0.000  -0.000  -0.000   0.000  -1.210   0.000   0.000  -0.010  -0.000  -0.000   0.000  -0.000   0.000
 -0.409  -0.000  -0.000   3.220  -0.000   0.192   0.000   0.000  -1.467   0.000   0.000   0.000  -0.000  -0.000   0.000   0.000
  0.000  -0.409  -0.000  -0.000   2.956  -0.000   0.192   0.000   0.000  -1.347   0.000   0.000   0.000  -0.000  -0.000   0.000
 -1.347   0.000  -0.000   0.192  -0.000   1.490  -0.000   0.000  -0.034   0.000   0.000   0.000   0.000   0.000   0.000  -0.000
  0.000  -1.467   0.000   0.000   0.192  -0.000   1.504  -0.000  -0.000  -0.034  -0.000  -0.000  -0.000  -0.000   0.000   0.000
 -0.000   0.000  -1.210   0.000   0.000   0.000  -0.000   1.464  -0.000  -0.000   0.006   0.001  -0.000   0.000  -0.000   0.000
  0.192   0.000   0.000  -1.467   0.000  -0.034  -0.000  -0.000   1.504  -0.000  -0.000  -0.000   0.000  -0.000  -0.000  -0.000
 -0.000   0.192   0.000   0.000  -1.347   0.000  -0.034  -0.000  -0.000   1.490  -0.000  -0.000   0.000  -0.000  -0.000  -0.000
 -0.000   0.000  -0.010   0.000   0.000   0.000  -0.000   0.006  -0.000  -0.000   2.333  -0.328  -0.000   0.000  -0.000   0.000
 -0.000   0.000  -0.000   0.000   0.000   0.000  -0.000   0.001  -0.000  -0.000  -0.328   0.053   0.000  -0.000   0.000  -0.000
  0.000   0.000  -0.000  -0.000   0.000   0.000  -0.000  -0.000   0.000   0.000  -0.000   0.000   0.310  -0.000  -0.000  -0.034
  0.000  -0.000   0.000  -0.000  -0.000   0.000  -0.000   0.000  -0.000  -0.000   0.000  -0.000  -0.000   0.310  -0.000   0.000
  0.000  -0.000  -0.000   0.000  -0.000   0.000   0.000  -0.000  -0.000  -0.000  -0.000   0.000  -0.000  -0.000   0.310   0.000
  0.000  -0.000   0.000   0.000   0.000  -0.000   0.000   0.000  -0.000  -0.000   0.000  -0.000  -0.034   0.000   0.000   0.004
 -0.000   0.000  -0.000   0.000   0.000  -0.000   0.000  -0.000   0.000   0.000  -0.000   0.000   0.000  -0.034   0.000  -0.000
  0.000   0.000   0.000  -0.000   0.000  -0.000  -0.000   0.000   0.000   0.000   0.000  -0.000   0.000   0.000  -0.034  -0.000
 total augmentation occupancy for first ion, spin component:           2
 -0.000   0.000  -0.000  -0.000   0.000   0.000  -0.000   0.000   0.000  -0.000   0.000   0.000  -0.000   0.000  -0.000   0.000
  0.000  -0.000   0.000   0.000  -0.000  -0.000   0.000  -0.000  -0.000  -0.000  -0.000  -0.000   0.000  -0.000  -0.000  -0.000
 -0.000   0.000  -0.000   0.000   0.000   0.000  -0.000   0.000  -0.000  -0.000   0.000   0.000   0.000   0.000  -0.000  -0.000
 -0.000   0.000   0.000  -0.000   0.000  -0.000  -0.000  -0.000   0.000  -0.000  -0.000  -0.000  -0.000  -0.000   0.000   0.000
  0.000  -0.000   0.000   0.000  -0.000  -0.000   0.000  -0.000  -0.000   0.000  -0.000  -0.000  -0.000  -0.000  -0.000   0.000
  0.000  -0.000   0.000  -0.000  -0.000  -0.000   0.000  -0.000   0.000  -0.000  -0.000  -0.000   0.000  -0.000   0.000  -0.000
 -0.000   0.000  -0.000  -0.000   0.000   0.000   0.000   0.000  -0.000   0.000   0.000   0.000  -0.000   0.000   0.000   0.000
  0.000  -0.000   0.000  -0.000  -0.000  -0.000   0.000  -0.000   0.000   0.000  -0.000  -0.000   0.000  -0.000   0.000   0.000
  0.000  -0.000  -0.000   0.000  -0.000   0.000  -0.000   0.000   0.000  -0.000   0.000   0.000   0.000   0.000  -0.000  -0.000
 -0.000  -0.000  -0.000  -0.000   0.000  -0.000   0.000   0.000  -0.000  -0.000   0.000   0.000   0.000   0.000   0.000  -0.000
  0.000  -0.000   0.000  -0.000  -0.000  -0.000   0.000  -0.000   0.000   0.000   0.000  -0.000   0.000  -0.000   0.000  -0.000
  0.000  -0.000   0.000  -0.000  -0.000  -0.000   0.000  -0.000   0.000   0.000  -0.000   0.000  -0.000   0.000  -0.000   0.000
 -0.000   0.000   0.000  -0.000  -0.000   0.000  -0.000   0.000   0.000   0.000   0.000  -0.000   0.000  -0.000  -0.000  -0.000
  0.000  -0.000   0.000  -0.000  -0.000  -0.000   0.000  -0.000   0.000   0.000  -0.000   0.000  -0.000   0.000  -0.000   0.000
 -0.000  -0.000  -0.000   0.000  -0.000   0.000   0.000   0.000  -0.000   0.000   0.000  -0.000  -0.000  -0.000   0.000   0.000
  0.000  -0.000  -0.000   0.000   0.000  -0.000   0.000   0.000  -0.000  -0.000  -0.000   0.000  -0.000   0.000   0.000   0.000
 -0.000   0.000  -0.000   0.000   0.000  -0.000   0.000  -0.000   0.000   0.000   0.000  -0.000   0.000  -0.000   0.000  -0.000
  0.000   0.000   0.000  -0.000  -0.000  -0.000  -0.000  -0.000   0.000   0.000  -0.000   0.000   0.000   0.000  -0.000  -0.000


------------------------ aborting loop because EDIFF is reached ----------------------------------------



 ----------------------------------------------------------------------------- 
|                                                                             |
|           W    W    AA    RRRRR   N    N  II  N    N   GGGG   !!!           |
|           W    W   A  A   R    R  NN   N  II  NN   N  G    G  !!!           |
|           W    W  A    A  R    R  N N  N  II  N N  N  G       !!!           |
|           W WW W  AAAAAA  RRRRR   N  N N  II  N  N N  G  GGG   !            |
|           WW  WW  A    A  R   R   N   NN  II  N   NN  G    G                |
|           W    W  A    A  R    R  N    N  II  N    N   GGGG   !!!           |
|                                                                             |
|      Your highest band is occupied at some k-points! Unless you are         |
|      performing a calculation for an insulator or semiconductor, without    |
|      unoccupied bands, you have included TOO FEW BANDS!! Please increase    |
|      the parameter NBANDS in file INCAR to ensure that the highest band     |
|      is unoccupied at all k-points. It is always recommended to             |
|      include a few unoccupied bands to accelerate the convergence of        |
|      molecular dynamics runs (even for insulators or semiconductors).       |
|      Because the presence of unoccupied bands improves wavefunction         |
|      prediction, and helps to suppress 'band-crossings.'                    |
|      Following all k-points will be listed (with the Fermi weights of       |
|      the highest band given in paranthesis) ... :                           |
|                                                                             |
|                          1       ( 0.52596)                                 |
|                         37       ( 0.55939)                                 |
|                         87       ( 0.65619)                                 |
|                        119       ( 0.79738)                                 |
|                        137       ( 0.93691)                                 |
|                        145       ( 1.02004)                                 |
|                        146       (-0.01507)                                 |
|                          1       ( 0.52596)                                 |
|                         37       ( 0.55939)                                 |
|                         87       ( 0.65619)                                 |
|                        119       ( 0.79738)                                 |
|                        137       ( 0.93691)                                 |
|                        145       ( 1.02004)                                 |
|                        146       (-0.01507)                                 |
|                                                                             |
|      The total occupancy of band no.    24 is   0.01259 electrons ...       |
|                                                                             |
 ----------------------------------------------------------------------------- 

 


 total charge     
 
# of ion       s       p       d       tot
------------------------------------------
    1        0.500   0.506   8.328   9.334
    2        0.500   0.506   8.328   9.334
    3        0.500   0.506   8.328   9.334
    4        0.500   0.506   8.328   9.334
--------------------------------------------------
tot          2.000   2.022  33.314  37.336
 


 magnetization (x)
 
# of ion       s       p       d       tot
------------------------------------------
    1        0.000   0.000   0.000   0.000
    2       -0.000  -0.000   0.001   0.001
    3       -0.000  -0.000  -0.000  -0.000
    4        0.000   0.000  -0.001  -0.001
--------------------------------------------------
tot          0.000  -0.000   0.000   0.000
 
    CHARGE:  cpu time    0.2633: real time    0.2639
    FORLOC:  cpu time    0.0008: real time    0.0008
    FORNL :  cpu time    0.5874: real time    0.5889
    STRESS:  cpu time    1.0983: real time    1.1009
    FORCOR:  cpu time    0.0248: real time    0.0249
    FORHAR:  cpu time    0.0027: real time    0.0027
    MIXING:  cpu time    0.0009: real time    0.0009
    OFIELD:  cpu time    0.0000: real time    0.0000

  FORCE on cell =-STRESS in cart. coord.  units (eV):
  Direction    XX          YY          ZZ          XY          YZ          ZX
  --------------------------------------------------------------------------------------
  Alpha Z   189.89775   189.89775   189.89775
  Ewald   -1256.61684 -1256.61684 -1256.61679     0.00002    -0.00000     0.00001
  Hartree   296.85896   296.85900   296.49832    -0.00004    -0.00000    -0.00000
  E(xc)    -220.08235  -220.08235  -220.07479     0.00001     0.00000     0.00000
  Local       4.25967     4.25930     5.25412     0.00031     0.00003     0.00004
  n-local   -32.67843   -29.25346   -31.31200    -2.34515    -0.07456     0.30592
  augment   704.02392   704.02454   703.74870    -0.00054    -0.00003    -0.00006
  Kinetic   314.20435   311.95374   312.97422     1.39957    -0.17300    -0.03274
  Fock        0.00000     0.00000     0.00000     0.00000     0.00000     0.00000
  -------------------------------------------------------------------------------------
  Total       0.45436     0.45436     0.36952    -0.00000    -0.00000    -0.00000
  in kB      16.94120    16.94120    13.77791    -0.00000    -0.00000    -0.00000
  external pressure =       15.89 kB  Pullay stress =        0.00 kB


 VOLUME and BASIS-vectors are now :
 -----------------------------------------------------------------------------
  energy-cutoff  :      520.00
  volume of cell :       42.97
      direct lattice vectors                 reciprocal lattice vectors
     2.476700100  0.000000000  0.000000000     0.403763056 -0.233112700 -0.041208889
     1.238350000  2.144885200  0.000000000     0.000000000  0.466225418 -0.041208895
     1.238349900  0.714961720  8.088868400     0.000000000  0.000000000  0.123626687

  length of vectors
     2.476700100  2.476700071  8.214284675     0.468043063  0.468043068  0.123626687


 FORCES acting on ions
    electron-ion (+dipol)            ewald-force                    non-local-force                 convergence-correction
 -----------------------------------------------------------------------------------------------
   -.205E-10 -.117E-10 0.677E-04   0.136E-13 0.216E-14 -.114E-12   -.321E-11 -.321E-12 0.195E-03   0.110E-08 0.637E-09 -.300E-03
   0.209E-10 0.116E-10 -.677E-04   0.166E-13 0.829E-15 -.616E-13   0.321E-11 0.321E-12 -.195E-03   -.110E-08 -.636E-09 0.300E-03
   -.201E-10 -.119E-10 0.677E-04   0.168E-13 0.713E-15 0.114E-12   -.321E-11 -.321E-12 0.195E-03   0.110E-08 0.637E-09 -.301E-03
   0.235E-10 0.131E-10 -.677E-04   0.199E-13 -.612E-15 0.114E-12   0.321E-11 0.321E-12 -.195E-03   -.110E-08 -.636E-09 0.300E-03
 -----------------------------------------------------------------------------------------------
   0.382E-11 0.111E-11 0.460E-11   0.669E-13 0.309E-14 0.521E-13   0.212E-21 -.529E-21 0.244E-18   0.259E-12 0.167E-12 -.128E-12
 
 
 POSITION                                       TOTAL-FORCE (eV/Angst)
 -----------------------------------------------------------------------------------
      0.00000      0.00000      0.00000         0.000000      0.000000     -0.000038
      1.23835      0.71496      2.02222        -0.000000     -0.000000      0.000038
      2.47670      1.42992      4.04443         0.000000      0.000000     -0.000038
      3.71505      2.14489      6.06665        -0.000000     -0.000000      0.000038
 -----------------------------------------------------------------------------------
    total drift:                                0.000000      0.000000      0.000000


--------------------------------------------------------------------------------------------------------



  FREE ENERGIE OF THE ION-ELECTRON SYSTEM (eV)
  ---------------------------------------------------
  free  energy   TOTEN  =       -21.65339305 eV

  energy  without entropy=      -21.59801017  energy(sigma->0) =      -21.63493209
 


--------------------------------------------------------------------------------------------------------


    POTLOK:  cpu time    0.5889: real time    0.5903


--------------------------------------------------------------------------------------------------------


     LOOP+:  cpu time   51.9482: real time   52.1342
    4ORBIT:  cpu time    0.0000: real time    0.0000
 


 total charge     
 
# of ion       s       p       d       tot
------------------------------------------
    1        0.500   0.506   8.328   9.334
    2        0.500   0.506   8.328   9.334
    3        0.500   0.506   8.328   9.334
    4        0.500   0.506   8.328   9.334
--------------------------------------------------
tot          2.000   2.022  33.314  37.336
 


 magnetization (x)
 
# of ion       s       p       d       tot
------------------------------------------
    1        0.000   0.000   0.000   0.000
    2       -0.000  -0.000   0.001   0.001
    3       -0.000  -0.000  -0.000  -0.000
    4        0.000   0.000  -0.001  -0.001
--------------------------------------------------
tot          0.000  -0.000   0.000   0.000
 

 total amount of memory used by VASP MPI-rank0    76895. kBytes
=======================================================================

   base      :      30000. kBytes
   nonl-proj :      24968. kBytes
   fftplans  :        851. kBytes
   grid      :       3348. kBytes
   one-center:        124. kBytes
   wavefun   :      17604. kBytes
 
  
  
 General timing and accounting informations for this job:
 ========================================================
  
                  Total CPU time used (sec):       54.203
                            User time (sec):       53.577
                          System time (sec):        0.626
                         Elapsed time (sec):       55.732
  
                   Maximum memory used (kb):      111284.
                   Average memory used (kb):           0.
  
                          Minor page faults:        32043
                          Major page faults:            0
                 Voluntary context switches:         1357
