 vasp.5.4.4.18Apr17-6-g9f103f2a35 (build Apr 28 2018 00:24:27) complex          
  
 executed on             LinuxIFC date 2021.04.17  17:40:26
 running on    8 total cores
 distrk:  each k-point on    8 cores,    1 groups
 distr:  one band on NCORES_PER_BAND=   4 cores,    2 groups


--------------------------------------------------------------------------------------------------------


 INCAR:
 POTCAR:    PAW_PBE Eu 23Dec2003                  
 POTCAR:    PAW_PBE S 06Sep2000                   
 POTCAR:    PAW_PBE Eu 23Dec2003                  
   VRHFIN =Eu : [core=Kr4d]                                                     
   LEXCH  = PE                                                                  
   EATOM  =  2619.8085 eV,  192.5505 Ry                                         
                                                                                
   TITEL  = PAW_PBE Eu 23Dec2003                                                
   LULTRA =        F    use ultrasoft PP ?                                      
   IUNSCR =        1    unscreen: 0-lin 1-nonlin 2-no                           
   RPACOR =    2.300    partial core radius                                     
   POMASS =  151.965; ZVAL   =   17.000    mass and valenz                      
   RCORE  =    2.800    outmost cutoff radius                                   
   RWIGS  =    2.800; RWIGS  =    1.482    wigner-seitz radius (au A)           
   ENMAX  =  249.668; ENMIN  =  187.251 eV                                      
   RCLOC  =    2.308    cutoff for local pot                                    
   LCOR   =        T    correct aug charges                                     
   LPAW   =        T    paw PP                                                  
   EAUG   =  549.628                                                            
   DEXC   =    0.000                                                            
   RMAX   =    2.870    core radius for proj-oper                               
   RAUG   =    1.300    factor for augmentation sphere                          
   RDEP   =    2.887    radius for radial grids                                 
   RDEPT  =    2.221    core radius for aug-charge                              
                                                                                
   Atomic configuration                                                         
   14 entries                                                                   
     n  l   j            E        occ.                                          
     1  0  0.50    -48354.7667   2.0000                                         
     2  0  0.50     -7939.6472   2.0000                                         
     2  1  1.50     -7072.6637   6.0000                                         
     3  0  0.50     -1747.1875   2.0000                                         
     3  1  1.50     -1477.5221   6.0000                                         
     3  2  2.50     -1117.4686  10.0000                                         
     4  0  0.50      -346.8682   2.0000                                         
     4  1  1.50      -258.1962   6.0000                                         
     4  2  2.50      -134.7724  10.0000                                         
     5  0  0.50       -44.6510   2.0000                                         
     6  0  0.50        -3.6227   2.0000                                         
     5  1  1.50       -23.7639   6.0000                                         
     5  2  2.50        -1.3130   0.0000                                         
     4  3  2.50        -2.7310   7.0000                                         
   Description                                                                  
     l       E           TYP  RCUT    TYP  RCUT                                 
     0    -44.6510453     23  2.400                                             
     0     -3.6226685     23  2.400                                             
     1    -23.7638687     23  2.400                                             
     1     27.2116520     23  2.400                                             
     2     -1.3129622     23  2.500                                             
     2     13.6058260     23  2.500                                             
     3     -2.7309948     23  2.800                                             
     3     -3.4014565     23  2.800                                             
  local pseudopotential read in
  partial core-charges read in
  partial kinetic energy density read in
  atomic valenz-charges read in
  non local Contribution for L=           0  read in
    real space projection operators read in
  non local Contribution for L=           0  read in
    real space projection operators read in
  non local Contribution for L=           1  read in
    real space projection operators read in
  non local Contribution for L=           1  read in
    real space projection operators read in
  non local Contribution for L=           2  read in
    real space projection operators read in
  non local Contribution for L=           2  read in
    real space projection operators read in
  non local Contribution for L=           3  read in
    real space projection operators read in
  non local Contribution for L=           3  read in
    real space projection operators read in
    PAW grid and wavefunctions read in
 
   number of l-projection  operators is LMAX  =           8
   number of lm-projection operators is LMMAX =          32
 
 POTCAR:    PAW_PBE S 06Sep2000                   
   VRHFIN =S : s2p4                                                             
   LEXCH  = PE                                                                  
   EATOM  =   276.8230 eV,   20.3459 Ry                                         
                                                                                
   TITEL  = PAW_PBE S 06Sep2000                                                 
   LULTRA =        F    use ultrasoft PP ?                                      
   IUNSCR =        1    unscreen: 0-lin 1-nonlin 2-no                           
   RPACOR =    1.500    partial core radius                                     
   POMASS =   32.066; ZVAL   =    6.000    mass and valenz                      
   RCORE  =    1.900    outmost cutoff radius                                   
   RWIGS  =    2.200; RWIGS  =    1.164    wigner-seitz radius (au A)           
   ENMAX  =  258.689; ENMIN  =  194.016 eV                                      
   ICORE  =        2    local potential                                         
   LCOR   =        T    correct aug charges                                     
   LPAW   =        T    paw PP                                                  
   EAUG   =  335.092                                                            
   DEXC   =    0.000                                                            
   RMAX   =    1.942    core radius for proj-oper                               
   RAUG   =    1.300    factor for augmentation sphere                          
   RDEP   =    1.954    radius for radial grids                                 
   RDEPT  =    1.744    core radius for aug-charge                              
                                                                                
   Atomic configuration                                                         
    6 entries                                                                   
     n  l   j            E        occ.                                          
     1  0  0.50     -2405.8406   2.0000                                         
     2  0  0.50      -211.7007   2.0000                                         
     2  1  1.50      -156.4958   6.0000                                         
     3  0  0.50       -17.2562   2.0000                                         
     3  1  0.50        -7.0085   4.0000                                         
     3  2  1.50        -6.8029   0.0000                                         
   Description                                                                  
     l       E           TYP  RCUT    TYP  RCUT                                 
     0    -17.2561641     23  1.900                                             
     0    -15.8743224     23  1.900                                             
     1     -7.0085400     23  1.900                                             
     1     -2.7779785     23  1.900                                             
     2     -6.8029130     23  1.900                                             
  local pseudopotential read in
  partial core-charges read in
  partial kinetic energy density read in
  atomic valenz-charges read in
  non local Contribution for L=           0  read in
    real space projection operators read in
  non local Contribution for L=           0  read in
    real space projection operators read in
  non local Contribution for L=           1  read in
    real space projection operators read in
  non local Contribution for L=           1  read in
    real space projection operators read in
    PAW grid and wavefunctions read in
 
   number of l-projection  operators is LMAX  =           4
   number of lm-projection operators is LMMAX =           8
 

 ----------------------------------------------------------------------------- 
|                                                                             |
|  ADVICE TO THIS USER RUNNING 'VASP/VAMP'   (HEAR YOUR MASTER'S VOICE ...):  |
|                                                                             |
|      You have a (more or less) 'small supercell' and for smaller cells      |
|      it is recommended  to use the reciprocal-space projection scheme!      |
|      The real space optimization is not  efficient for small cells and it   |
|      is also less accurate ...                                              |
|      Therefore set LREAL=.FALSE. in the  INCAR file                         |
|                                                                             |
 ----------------------------------------------------------------------------- 

 Optimization of the real space projectors (new method)

 maximal supplied QI-value         = 13.42
 optimisation between [QCUT,QGAM] = [ 11.67, 23.35] = [ 38.16,152.62] Ry 
 Optimized for a Real-space Cutoff    1.63 Angstroem

   l    n(q)    QCUT    max X(q) W(low)/X(q) W(high)/X(q)  e(spline) 
   0     11    11.673    10.400    0.14E-04    0.18E-05    0.24E-07
   0     11    11.673    10.768    0.21E-04    0.32E-05    0.49E-07
   1     11    11.673     4.094    0.40E-05    0.13E-04    0.93E-07
   1     11    11.673     4.009    0.11E-04    0.46E-04    0.33E-06
   2     10    11.673    29.030    0.79E-04    0.60E-04    0.70E-06
   2     10    11.673    19.941    0.80E-04    0.60E-04    0.71E-06
   3     10    11.673    88.889    0.23E-03    0.29E-03    0.30E-06
   3     10    11.673    76.102    0.23E-03    0.30E-03    0.30E-06
 Optimization of the real space projectors (new method)

 maximal supplied QI-value         = 19.84
 optimisation between [QCUT,QGAM] = [ 11.51, 23.22] = [ 37.09,150.92] Ry 
 Optimized for a Real-space Cutoff    1.21 Angstroem

   l    n(q)    QCUT    max X(q) W(low)/X(q) W(high)/X(q)  e(spline) 
   0      8    11.508   187.594    0.96E-04    0.18E-03    0.54E-07
   0      8    11.508   164.243    0.96E-04    0.18E-03    0.54E-07
   1      8    11.508    67.533    0.18E-03    0.65E-04    0.94E-07
   1      8    11.508    50.729    0.18E-03    0.63E-04    0.92E-07
  PAW_PBE Eu 23Dec2003                  :
 energy of atom  1       EATOM=-2619.8085
 kinetic energy error for atom=    0.0015 (will be added to EATOM!!)
  PAW_PBE S 06Sep2000                   :
 energy of atom  2       EATOM= -276.8230
 kinetic energy error for atom=    0.0016 (will be added to EATOM!!)
 
 
 POSCAR: Eu2 S2                                  
  positions in direct lattice
  velocities in cartesian coordinates
 exchange correlation table for  LEXCH =        8
   RHO(1)=    0.500       N(1)  =     2000
   RHO(2)=  100.500       N(2)  =     4000
 


--------------------------------------------------------------------------------------------------------


 ion  position               nearest neighbor table
   1  0.000  0.500  0.500-   3 2.92   4 2.92   4 2.92   3 2.92   3 2.92   4 2.92
   2  0.000  0.000  0.000-   3 2.92   4 2.92   4 2.92   3 2.92   3 2.92   4 2.92
   3  0.500  0.250  0.750-   2 2.92   2 2.92   1 2.92   1 2.92   2 2.92   1 2.92
   4  0.500  0.750  0.250-   2 2.92   2 2.92   1 2.92   1 2.92   2 2.92   1 2.92
 
  LATTYP: Found a base centered monoclinic cell.
 ALAT       =    13.7476215439
 B/A-ratio  =     0.3001294572
 C/A-ratio  =     0.5221167183
 COS(beta)  =    -0.8347074317
  
  Lattice vectors:
  
 A1 = (   2.0630330958,   1.1903157881,  -6.7699647601)
 A2 = (  -2.0630330958,   1.1903157881,  -6.7699647601)
 A3 = (   0.0000000000,   2.3836888091,   6.7705055610)


Analysis of symmetry for initial positions (statically):
=====================================================================
 Subroutine PRICEL returns:
 Original cell was already a primitive cell.
 

 Routine SETGRP: Setting up the symmetry group for a 
 base centered monoclinic supercell.


 Subroutine GETGRP returns: Found  4 space group operations
 (whereof  4 operations were pure point group operations)
 out of a pool of  4 trial point group operations.


The static configuration has the point symmetry C_2h.


Analysis of symmetry for dynamics (positions and initial velocities):
=====================================================================
 Subroutine PRICEL returns:
 Original cell was already a primitive cell.
 

 Routine SETGRP: Setting up the symmetry group for a 
 base centered monoclinic supercell.


 Subroutine GETGRP returns: Found  4 space group operations
 (whereof  4 operations were pure point group operations)
 out of a pool of  4 trial point group operations.


The dynamic configuration has the point symmetry C_2h.


Analysis of structural, dynamic, and magnetic symmetry:
=====================================================================
 Subroutine PRICEL returns:
 Original cell was already a primitive cell.
 

 Routine SETGRP: Setting up the symmetry group for a 
 base centered monoclinic supercell.


 Subroutine GETGRP returns: Found  4 space group operations
 (whereof  4 operations were pure point group operations)
 out of a pool of  4 trial point group operations.


The magnetic configuration has the point symmetry C_2h.


 Subroutine INISYM returns: Found  4 space group operations
 (whereof  4 operations are pure point group operations),
 and found     1 'primitive' translations

 
 
 KPOINTS: pymatgen v2019.10.16 with grid density =

Automatic generation of k-mesh.
Space group operators:
 irot       det(A)        alpha          n_x          n_y          n_z        tau_x        tau_y        tau_z
    1     1.000000     0.000000     1.000000     0.000000     0.000000     0.000000     0.000000     0.000000
    2    -1.000000     0.000000     1.000000     0.000000     0.000000     0.000000     0.000000     0.000000
    3     1.000000   180.000000     1.000000     0.000000     0.000000     0.000000     0.000000     0.000000
    4    -1.000000   180.000000     1.000000     0.000000     0.000000     0.000000     0.000000     0.000000
 
 Subroutine IBZKPT returns following result:
 ===========================================
 
 Found    172 irreducible k-points:
 
 Following reciprocal coordinates:
            Coordinates               Weight
  0.000000  0.000000  0.000000      1.000000
  0.100000  0.000000  0.000000      2.000000
  0.200000  0.000000  0.000000      2.000000
  0.300000  0.000000  0.000000      2.000000
  0.400000  0.000000  0.000000      2.000000
  0.500000  0.000000  0.000000      1.000000
 -0.000000  0.166667  0.000000      2.000000
  0.100000  0.166667  0.000000      2.000000
  0.200000  0.166667  0.000000      2.000000
  0.300000  0.166667  0.000000      2.000000
  0.400000  0.166667  0.000000      2.000000
  0.500000  0.166667  0.000000      2.000000
 -0.400000  0.166667  0.000000      2.000000
 -0.300000  0.166667  0.000000      2.000000
 -0.200000  0.166667  0.000000      2.000000
 -0.100000  0.166667  0.000000      2.000000
 -0.000000  0.333333  0.000000      2.000000
  0.100000  0.333333  0.000000      2.000000
  0.200000  0.333333  0.000000      2.000000
  0.300000  0.333333  0.000000      2.000000
  0.400000  0.333333  0.000000      2.000000
  0.500000  0.333333  0.000000      2.000000
 -0.400000  0.333333  0.000000      2.000000
 -0.300000  0.333333  0.000000      2.000000
 -0.200000  0.333333  0.000000      2.000000
 -0.100000  0.333333  0.000000      2.000000
  0.000000  0.500000  0.000000      1.000000
  0.100000  0.500000  0.000000      2.000000
  0.200000  0.500000  0.000000      2.000000
  0.300000  0.500000  0.000000      2.000000
  0.400000  0.500000  0.000000      2.000000
  0.500000  0.500000  0.000000      1.000000
 -0.000000 -0.000000  0.100000      4.000000
  0.200000 -0.000000  0.100000      4.000000
  0.300000  0.000000  0.100000      4.000000
  0.400000 -0.000000  0.100000      4.000000
  0.500000 -0.000000  0.100000      4.000000
 -0.000000  0.166667  0.100000      4.000000
  0.100000  0.166667  0.100000      4.000000
  0.200000  0.166667  0.100000      4.000000
  0.300000  0.166667  0.100000      4.000000
  0.400000  0.166667  0.100000      4.000000
  0.500000  0.166667  0.100000      4.000000
 -0.400000  0.166667  0.100000      4.000000
 -0.300000  0.166667  0.100000      4.000000
 -0.200000  0.166667  0.100000      4.000000
 -0.100000  0.166667  0.100000      4.000000
 -0.000000  0.333333  0.100000      4.000000
  0.100000  0.333333  0.100000      4.000000
  0.200000  0.333333  0.100000      4.000000
  0.300000  0.333333  0.100000      4.000000
  0.400000  0.333333  0.100000      4.000000
  0.500000  0.333333  0.100000      4.000000
 -0.400000  0.333333  0.100000      4.000000
 -0.300000  0.333333  0.100000      4.000000
 -0.200000  0.333333  0.100000      4.000000
 -0.100000  0.333333  0.100000      4.000000
 -0.000000  0.500000  0.100000      4.000000
  0.200000  0.500000  0.100000      4.000000
  0.300000  0.500000  0.100000      4.000000
  0.400000  0.500000  0.100000      4.000000
  0.500000  0.500000  0.100000      4.000000
 -0.000000  0.000000  0.200000      4.000000
  0.100000  0.000000  0.200000      2.000000
  0.300000  0.000000  0.200000      4.000000
  0.400000 -0.000000  0.200000      4.000000
  0.500000 -0.000000  0.200000      4.000000
 -0.400000  0.000000  0.200000      2.000000
 -0.000000  0.166667  0.200000      4.000000
  0.100000  0.166667  0.200000      4.000000
  0.200000  0.166667  0.200000      4.000000
  0.300000  0.166667  0.200000      4.000000
  0.400000  0.166667  0.200000      4.000000
  0.500000  0.166667  0.200000      4.000000
 -0.400000  0.166667  0.200000      4.000000
 -0.300000  0.166667  0.200000      4.000000
 -0.200000  0.166667  0.200000      4.000000
 -0.100000  0.166667  0.200000      4.000000
  0.000000  0.333333  0.200000      4.000000
  0.100000  0.333333  0.200000      4.000000
  0.200000  0.333333  0.200000      4.000000
  0.300000  0.333333  0.200000      4.000000
  0.400000  0.333333  0.200000      4.000000
  0.500000  0.333333  0.200000      4.000000
 -0.400000  0.333333  0.200000      4.000000
 -0.300000  0.333333  0.200000      4.000000
 -0.200000  0.333333  0.200000      4.000000
 -0.100000  0.333333  0.200000      4.000000
 -0.000000  0.500000  0.200000      4.000000
  0.100000  0.500000  0.200000      2.000000
  0.300000  0.500000  0.200000      4.000000
  0.400000  0.500000  0.200000      4.000000
  0.500000  0.500000  0.200000      4.000000
 -0.400000  0.500000  0.200000      2.000000
 -0.000000  0.000000  0.300000      4.000000
  0.100000  0.000000  0.300000      4.000000
  0.400000 -0.000000  0.300000      4.000000
  0.500000  0.000000  0.300000      4.000000
 -0.400000  0.000000  0.300000      4.000000
 -0.000000  0.166667  0.300000      4.000000
  0.100000  0.166667  0.300000      4.000000
  0.200000  0.166667  0.300000      4.000000
  0.300000  0.166667  0.300000      4.000000
  0.400000  0.166667  0.300000      4.000000
  0.500000  0.166667  0.300000      4.000000
 -0.400000  0.166667  0.300000      4.000000
 -0.300000  0.166667  0.300000      4.000000
 -0.200000  0.166667  0.300000      4.000000
 -0.100000  0.166667  0.300000      4.000000
 -0.000000  0.333333  0.300000      4.000000
  0.100000  0.333333  0.300000      4.000000
  0.200000  0.333333  0.300000      4.000000
  0.300000  0.333333  0.300000      4.000000
  0.400000  0.333333  0.300000      4.000000
  0.500000  0.333333  0.300000      4.000000
 -0.400000  0.333333  0.300000      4.000000
 -0.300000  0.333333  0.300000      4.000000
 -0.200000  0.333333  0.300000      4.000000
 -0.100000  0.333333  0.300000      4.000000
 -0.000000  0.500000  0.300000      4.000000
  0.100000  0.500000  0.300000      4.000000
  0.400000  0.500000  0.300000      4.000000
  0.500000  0.500000  0.300000      4.000000
 -0.400000  0.500000  0.300000      4.000000
 -0.000000  0.000000  0.400000      4.000000
  0.100000  0.000000  0.400000      4.000000
  0.200000  0.000000  0.400000      2.000000
  0.500000 -0.000000  0.400000      4.000000
 -0.400000  0.000000  0.400000      4.000000
 -0.300000  0.000000  0.400000      2.000000
 -0.000000  0.166667  0.400000      4.000000
  0.100000  0.166667  0.400000      4.000000
  0.200000  0.166667  0.400000      4.000000
  0.300000  0.166667  0.400000      4.000000
  0.400000  0.166667  0.400000      4.000000
  0.500000  0.166667  0.400000      4.000000
 -0.400000  0.166667  0.400000      4.000000
 -0.300000  0.166667  0.400000      4.000000
 -0.200000  0.166667  0.400000      4.000000
 -0.100000  0.166667  0.400000      4.000000
 -0.000000  0.333333  0.400000      4.000000
  0.100000  0.333333  0.400000      4.000000
  0.200000  0.333333  0.400000      4.000000
  0.300000  0.333333  0.400000      4.000000
  0.400000  0.333333  0.400000      4.000000
  0.500000  0.333333  0.400000      4.000000
 -0.400000  0.333333  0.400000      4.000000
 -0.300000  0.333333  0.400000      4.000000
 -0.200000  0.333333  0.400000      4.000000
 -0.100000  0.333333  0.400000      4.000000
 -0.000000  0.500000  0.400000      4.000000
  0.100000  0.500000  0.400000      4.000000
  0.200000  0.500000  0.400000      2.000000
  0.500000  0.500000  0.400000      4.000000
 -0.400000  0.500000  0.400000      4.000000
 -0.300000  0.500000  0.400000      2.000000
  0.000000  0.000000  0.500000      2.000000
  0.100000  0.000000  0.500000      4.000000
  0.200000  0.000000  0.500000      4.000000
 -0.000000  0.166667  0.500000      4.000000
  0.100000  0.166667  0.500000      4.000000
  0.200000  0.166667  0.500000      4.000000
  0.300000  0.166667  0.500000      4.000000
  0.400000  0.166667  0.500000      4.000000
  0.000000  0.333333  0.500000      4.000000
  0.100000  0.333333  0.500000      4.000000
  0.200000  0.333333  0.500000      4.000000
  0.300000  0.333333  0.500000      4.000000
  0.400000  0.333333  0.500000      4.000000
 -0.000000  0.500000  0.500000      2.000000
  0.100000  0.500000  0.500000      4.000000
  0.200000  0.500000  0.500000      4.000000
 
 Following cartesian coordinates:
            Coordinates               Weight
  0.000000  0.000000  0.000000      1.000000
  0.000000  0.027981 -0.009851      2.000000
  0.000000  0.055963 -0.019703      2.000000
  0.000000  0.083944 -0.029554      2.000000
  0.000000  0.111925 -0.039405      2.000000
  0.000000  0.139907 -0.049257      1.000000
  0.000000 -0.000004  0.024618      2.000000
  0.000000  0.027978  0.014767      2.000000
  0.000000  0.055959  0.004915      2.000000
  0.000000  0.083940 -0.004936      2.000000
  0.000000  0.111922 -0.014788      2.000000
  0.000000  0.139903 -0.024639      2.000000
  0.000000 -0.111929  0.064023      2.000000
  0.000000 -0.083948  0.054172      2.000000
  0.000000 -0.055966  0.044321      2.000000
  0.000000 -0.027985  0.034469      2.000000
  0.000000 -0.000007  0.049236      2.000000
  0.000000  0.027974  0.039384      2.000000
  0.000000  0.055955  0.029533      2.000000
  0.000000  0.083936  0.019682      2.000000
  0.000000  0.111918  0.009830      2.000000
  0.000000  0.139899 -0.000021      2.000000
  0.000000 -0.111933  0.088641      2.000000
  0.000000 -0.083951  0.078790      2.000000
  0.000000 -0.055970  0.068939      2.000000
  0.000000 -0.027989  0.059087      2.000000
  0.000000 -0.000011  0.073854      1.000000
  0.000000  0.027970  0.064002      2.000000
  0.000000  0.055951  0.054151      2.000000
  0.000000  0.083933  0.044300      2.000000
  0.000000  0.111914  0.034448      2.000000
  0.000000  0.139895  0.024597      1.000000
  0.024236 -0.013991  0.004926      4.000000
  0.024236  0.041972 -0.014777      4.000000
  0.024236  0.069953 -0.024628      4.000000
  0.024236  0.097935 -0.034480      4.000000
  0.024236  0.125916 -0.044331      4.000000
  0.024236 -0.013994  0.029544      4.000000
  0.024236  0.013987  0.019692      4.000000
  0.024236  0.041968  0.009841      4.000000
  0.024236  0.069950 -0.000011      4.000000
  0.024236  0.097931 -0.009862      4.000000
  0.024236  0.125912 -0.019713      4.000000
  0.024236 -0.125920  0.068949      4.000000
  0.024236 -0.097938  0.059098      4.000000
  0.024236 -0.069957  0.049246      4.000000
  0.024236 -0.041976  0.039395      4.000000
  0.024236 -0.013998  0.054161      4.000000
  0.024236  0.013983  0.044310      4.000000
  0.024236  0.041965  0.034459      4.000000
  0.024236  0.069946  0.024607      4.000000
  0.024236  0.097927  0.014756      4.000000
  0.024236  0.125908  0.004905      4.000000
  0.024236 -0.125923  0.093567      4.000000
  0.024236 -0.097942  0.083716      4.000000
  0.024236 -0.069961  0.073864      4.000000
  0.024236 -0.041979  0.064013      4.000000
  0.024236 -0.014002  0.078779      4.000000
  0.024236  0.041961  0.059077      4.000000
  0.024236  0.069942  0.049225      4.000000
  0.024236  0.097923  0.039374      4.000000
  0.024236  0.125905  0.029523      4.000000
  0.048472 -0.027981  0.009851      4.000000
  0.048472 -0.000000  0.000000      2.000000
  0.048472  0.055963 -0.019703      4.000000
  0.048472  0.083944 -0.029554      4.000000
  0.048472  0.111925 -0.039405      4.000000
  0.048472 -0.139907  0.049257      2.000000
  0.048472 -0.027985  0.034469      4.000000
  0.048472 -0.000004  0.024618      4.000000
  0.048472  0.027978  0.014767      4.000000
  0.048472  0.055959  0.004915      4.000000
  0.048472  0.083940 -0.004936      4.000000
  0.048472  0.111922 -0.014788      4.000000
  0.048472 -0.139910  0.073875      4.000000
  0.048472 -0.111929  0.064023      4.000000
  0.048472 -0.083948  0.054172      4.000000
  0.048472 -0.055966  0.044321      4.000000
  0.048472 -0.027989  0.059087      4.000000
  0.048472 -0.000007  0.049236      4.000000
  0.048472  0.027974  0.039384      4.000000
  0.048472  0.055955  0.029533      4.000000
  0.048472  0.083936  0.019682      4.000000
  0.048472  0.111918  0.009830      4.000000
  0.048472 -0.139914  0.098493      4.000000
  0.048472 -0.111933  0.088641      4.000000
  0.048472 -0.083951  0.078790      4.000000
  0.048472 -0.055970  0.068939      4.000000
  0.048472 -0.027992  0.083705      4.000000
  0.048472 -0.000011  0.073854      2.000000
  0.048472  0.055951  0.054151      4.000000
  0.048472  0.083933  0.044300      4.000000
  0.048472  0.111914  0.034448      4.000000
  0.048472 -0.139918  0.123110      2.000000
  0.072708 -0.041972  0.014777      4.000000
  0.072708 -0.013991  0.004926      4.000000
  0.072708  0.069953 -0.024628      4.000000
  0.072708  0.097935 -0.034480      4.000000
  0.072708 -0.153897  0.054183      4.000000
  0.072708 -0.041976  0.039395      4.000000
  0.072708 -0.013994  0.029544      4.000000
  0.072708  0.013987  0.019692      4.000000
  0.072708  0.041968  0.009841      4.000000
  0.072708  0.069950 -0.000011      4.000000
  0.072708  0.097931 -0.009862      4.000000
  0.072708 -0.153901  0.078800      4.000000
  0.072708 -0.125920  0.068949      4.000000
  0.072708 -0.097938  0.059098      4.000000
  0.072708 -0.069957  0.049246      4.000000
  0.072708 -0.041979  0.064013      4.000000
  0.072708 -0.013998  0.054161      4.000000
  0.072708  0.013983  0.044310      4.000000
  0.072708  0.041965  0.034459      4.000000
  0.072708  0.069946  0.024607      4.000000
  0.072708  0.097927  0.014756      4.000000
  0.072708 -0.153905  0.103418      4.000000
  0.072708 -0.125923  0.093567      4.000000
  0.072708 -0.097942  0.083716      4.000000
  0.072708 -0.069961  0.073864      4.000000
  0.072708 -0.041983  0.088631      4.000000
  0.072708 -0.014002  0.078779      4.000000
  0.072708  0.069942  0.049225      4.000000
  0.072708  0.097923  0.039374      4.000000
  0.072708 -0.153908  0.128036      4.000000
  0.096945 -0.055963  0.019703      4.000000
  0.096945 -0.027981  0.009851      4.000000
  0.096945  0.000000  0.000000      2.000000
  0.096945  0.083944 -0.029554      4.000000
  0.096945 -0.167888  0.059108      4.000000
  0.096945 -0.139907  0.049257      2.000000
  0.096945 -0.055966  0.044321      4.000000
  0.096945 -0.027985  0.034469      4.000000
  0.096945 -0.000004  0.024618      4.000000
  0.096945  0.027978  0.014767      4.000000
  0.096945  0.055959  0.004915      4.000000
  0.096945  0.083940 -0.004936      4.000000
  0.096945 -0.167892  0.083726      4.000000
  0.096945 -0.139910  0.073875      4.000000
  0.096945 -0.111929  0.064023      4.000000
  0.096945 -0.083948  0.054172      4.000000
  0.096945 -0.055970  0.068939      4.000000
  0.096945 -0.027989  0.059087      4.000000
  0.096945 -0.000007  0.049236      4.000000
  0.096945  0.027974  0.039384      4.000000
  0.096945  0.055955  0.029533      4.000000
  0.096945  0.083936  0.019682      4.000000
  0.096945 -0.167895  0.108344      4.000000
  0.096945 -0.139914  0.098493      4.000000
  0.096945 -0.111933  0.088641      4.000000
  0.096945 -0.083951  0.078790      4.000000
  0.096945 -0.055974  0.093556      4.000000
  0.096945 -0.027992  0.083705      4.000000
  0.096945 -0.000011  0.073854      2.000000
  0.096945  0.083933  0.044300      4.000000
  0.096945 -0.167899  0.132962      4.000000
  0.096945 -0.139918  0.123110      2.000000
  0.121181 -0.069953  0.024628      2.000000
  0.121181 -0.041972  0.014777      4.000000
  0.121181 -0.013991  0.004926      4.000000
  0.121181 -0.069957  0.049246      4.000000
  0.121181 -0.041976  0.039395      4.000000
  0.121181 -0.013994  0.029544      4.000000
  0.121181  0.013987  0.019692      4.000000
  0.121181  0.041968  0.009841      4.000000
  0.121181 -0.069961  0.073864      4.000000
  0.121181 -0.041979  0.064013      4.000000
  0.121181 -0.013998  0.054161      4.000000
  0.121181  0.013983  0.044310      4.000000
  0.121181  0.041965  0.034459      4.000000
  0.121181 -0.069964  0.098482      2.000000
  0.121181 -0.041983  0.088631      4.000000
  0.121181 -0.014002  0.078779      4.000000
 
 TETIRR: Found   1798 inequivalent tetrahedra from     3600


--------------------------------------------------------------------------------------------------------




 Dimension of arrays:
   k-points           NKPTS =    172   k-points in BZ     NKDIM =    172   number of bands    NBANDS=     28
   number of dos      NEDOS =    301   number of ions     NIONS =      4
   non local maximal  LDIM  =      8   non local SUM 2l+1 LMDIM =     32
   total plane-waves  NPLWV =  55296
   max r-space proj   IRMAX =  10046   max aug-charges    IRDMAX=  31859
   dimension x,y,z NGX =    32 NGY =   54 NGZ =   32
   dimension x,y,z NGXF=    64 NGYF=  108 NGZF=   64
   support grid    NGXF=    64 NGYF=  108 NGZF=   64
   ions per type =               2   2
   NGX,Y,Z   is equivalent  to a cutoff of  12.89, 12.51, 12.89 a.u.
   NGXF,Y,Z  is equivalent  to a cutoff of  25.78, 25.01, 25.79 a.u.

 SYSTEM =  unknown system                          
 POSCAR =  Eu2 S2                                  

 Startparameter for this run:
   NWRITE =      2    write-flag & timer
   PREC   = accura    normal or accurate (medium, high low for compatibility)
   ISTART =      0    job   : 0-new  1-cont  2-samecut
   ICHARG =      2    charge: 1-file 2-atom 10-const
   ISPIN  =      2    spin polarized calculation?
   LNONCOLLINEAR =      F non collinear calculations
   LSORBIT =      F    spin-orbit coupling
   INIWAV =      1    electr: 0-lowe 1-rand  2-diag
   LASPH  =      T    aspherical Exc in radial PAW
   METAGGA=      F    non-selfconsistent MetaGGA calc.

 Electronic Relaxation 1
   ENCUT  =  520.0 eV  38.22 Ry    6.18 a.u.   7.67 13.35  7.67*2*pi/ulx,y,z
   ENINI  =  520.0     initial cutoff
   ENAUG  =  549.6 eV  augmentation charge cutoff
   NELM   =    120;   NELMIN=  2; NELMDL=  0     # of ELM steps 
   EDIFF  = 0.1E-05   stopping-criterion for ELM
   LREAL  =      T    real-space projection
   NLSPLINE    = F    spline interpolate recip. space projectors
   LCOMPAT=      F    compatible to vasp.4.4
   GGA_COMPAT  = T    GGA compatible to vasp.4.4-vasp.4.6
   LMAXPAW     = -100 max onsite density
   LMAXMIX     =    4 max onsite mixed and CHGCAR
   VOSKOWN=      0    Vosko Wilk Nusair interpolation
   ROPT   =   -0.00025  -0.00025
 Ionic relaxation
   EDIFFG = 0.1E-04   stopping-criterion for IOM
   NSW    =      0    number of steps for IOM
   NBLOCK =      1;   KBLOCK =      1    inner block; outer block 
   IBRION =     -1    ionic relax: 0-MD 1-quasi-New 2-CG
   NFREE  =      0    steps in history (QN), initial steepest desc. (CG)
   ISIF   =      3    stress and relaxation
   IWAVPR =     10    prediction:  0-non 1-charg 2-wave 3-comb
   ISYM   =      2    0-nonsym 1-usesym 2-fastsym
   LCORR  =      T    Harris-Foulkes like correction to forces

   POTIM  = 0.5000    time-step for ionic-motion
   TEIN   =    0.0    initial temperature
   TEBEG  =    0.0;   TEEND  =   0.0 temperature during run
   SMASS  =  -3.00    Nose mass-parameter (am)
   estimated Nose-frequenzy (Omega)   =  0.10E-29 period in steps =****** mass=  -0.389E-27a.u.
   SCALEE = 1.0000    scale energy and forces
   NPACO  =    256;   APACO  = 16.0  distance and # of slots for P.C.
   PSTRESS=    0.0 pullay stress

  Mass of Ions in am
   POMASS = 151.97 32.07
  Ionic Valenz
   ZVAL   =  17.00  6.00
  Atomic Wigner-Seitz radii
   RWIGS  =  -1.00 -1.00
  virtual crystal weights 
   VCA    =   1.00  1.00
   NELECT =      46.0000    total number of electrons
   NUPDOWN=      -1.0000    fix difference up-down

 DOS related values:
   EMIN   =  10.00;   EMAX   =-10.00  energy-range for DOS
   EFERMI =   0.00
   ISMEAR =    -5;   SIGMA  =   0.05  broadening in eV -4-tet -1-fermi 0-gaus

 Electronic relaxation 2 (details)
   IALGO  =     38    algorithm
   LDIAG  =      T    sub-space diagonalisation (order eigenvalues)
   LSUBROT=      F    optimize rotation matrix (better conditioning)
   TURBO    =      0    0=normal 1=particle mesh
   IRESTART =      0    0=no restart 2=restart with 2 vectors
   NREBOOT  =      0    no. of reboots
   NMIN     =      0    reboot dimension
   EREF     =   0.00    reference energy to select bands
   IMIX   =      4    mixing-type and parameters
     AMIX     =   0.40;   BMIX     =  1.00
     AMIX_MAG =   1.60;   BMIX_MAG =  1.00
     AMIN     =   0.10
     WC   =   100.;   INIMIX=   1;  MIXPRE=   1;  MAXMIX= -45

 Intra band minimization:
   WEIMIN = 0.0000     energy-eigenvalue tresh-hold
   EBREAK =  0.89E-08  absolut break condition
   DEPER  =   0.30     relativ break condition  

   TIME   =   0.40     timestep for ELM

  volume/ion in A,a.u.               =      24.96       168.43
  Fermi-wavevector in a.u.,A,eV,Ry     =   1.264438  2.389442 21.753057  1.598805
  Thomas-Fermi vector in A             =   2.397744
 
 Write flags
   LWAVE        =      F    write WAVECAR
   LDOWNSAMPLE  =      F    k-point downsampling of WAVECAR
   LCHARG       =      T    write CHGCAR
   LVTOT        =      F    write LOCPOT, total local potential
   LVHAR        =      F    write LOCPOT, Hartree potential only
   LELF         =      F    write electronic localiz. function (ELF)
   LORBIT       =     11    0 simple, 1 ext, 2 COOP (PROOUT), +10 PAW based schemes


 Dipole corrections
   LMONO  =      F    monopole corrections only (constant potential shift)
   LDIPOL =      F    correct potential (dipole corrections)
   IDIPOL =      0    1-x, 2-y, 3-z, 4-all directions 
   EPSILON=  1.0000000 bulk dielectric constant

 Exchange correlation treatment:
   GGA     =    --    GGA type
   LEXCH   =     8    internal setting for exchange type
   VOSKOWN=      0    Vosko Wilk Nusair interpolation
   LHFCALC =     F    Hartree Fock is set to
   LHFONE  =     F    Hartree Fock one center treatment
   AEXX    =    0.0000 exact exchange contribution

 Linear response parameters
   LEPSILON=     F    determine dielectric tensor
   LRPA    =     F    only Hartree local field effects (RPA)
   LNABLA  =     F    use nabla operator in PAW spheres
   LVEL    =     F    velocity operator in full k-point grid
   LINTERFAST=   F  fast interpolation
   KINTER  =     0    interpolate to denser k-point grid
   CSHIFT  =0.1000    complex shift for real part using Kramers Kronig
   OMEGAMAX=  -1.0    maximum frequency
   DEG_THRESHOLD= 0.2000000E-02 threshold for treating states as degnerate
   RTIME   =   -0.100 relaxation time in fs
  (WPLASMAI=    0.000 imaginary part of plasma frequency in eV, 0.658/RTIME)
   DFIELD  = 0.0000000 0.0000000 0.0000000 field for delta impulse in time
 
 Orbital magnetization related:
   ORBITALMAG=     F  switch on orbital magnetization
   LCHIMAG   =     F  perturbation theory with respect to B field
   DQ        =  0.001000  dq finite difference perturbation B field
   LLRAUG    =     F  two centre corrections for induced B field



--------------------------------------------------------------------------------------------------------


 Static calculation
 charge density and potential will be updated during run
 spin polarized calculation
 Variant of blocked Davidson
 Davidson routine will perform the subspace rotation
 perform sub-space diagonalisation
    after iterative eigenvector-optimisation
 modified Broyden-mixing scheme, WC =      100.0
 initial mixing is a Kerker type mixing with AMIX =  0.4000 and BMIX =      1.0000
 Hartree-type preconditioning will be used
 using additional bands            5
 real space projection scheme for non local part
 use partial core corrections
 calculate Harris-corrections to forces 
   (improved forces if not selfconsistent)
 use gradient corrections 
 use of overlap-Matrix (Vanderbilt PP)
 Fermi weights with tetrahedron method with Bloechl corrections


--------------------------------------------------------------------------------------------------------


  energy-cutoff  :      520.00
  volume of cell :       99.84
      direct lattice vectors                 reciprocal lattice vectors
     2.063033096  3.574004597  0.000540801     0.000000000  0.279813092 -0.098513668
     0.000000000  2.383688809  6.770505561     0.000000000 -0.000022350  0.147707327
     4.126066192  0.000000000  0.000000000     0.242361599 -0.139906546  0.049256834

  length of vectors
     4.126695374  7.177863045  4.126066192     0.296648460  0.147707328  0.284146480


 
 k-points in units of 2pi/SCALE and weight: pymatgen v2019.10.16 with grid density =
   0.00000000  0.00000000  0.00000000       0.002
   0.00000000  0.02798131 -0.00985137       0.003
   0.00000000  0.05596262 -0.01970273       0.003
   0.00000000  0.08394393 -0.02955410       0.003
   0.00000000  0.11192524 -0.03940547       0.003
   0.00000000  0.13990655 -0.04925683       0.002
   0.00000000 -0.00000373  0.02461789       0.003
   0.00000000  0.02797758  0.01476652       0.003
   0.00000000  0.05595889  0.00491515       0.003
   0.00000000  0.08394020 -0.00493621       0.003
   0.00000000  0.11192151 -0.01478758       0.003
   0.00000000  0.13990282 -0.02463895       0.003
   0.00000000 -0.11192896  0.06402335       0.003
   0.00000000 -0.08394765  0.05417199       0.003
   0.00000000 -0.05596634  0.04432062       0.003
   0.00000000 -0.02798503  0.03446925       0.003
   0.00000000 -0.00000745  0.04923578       0.003
   0.00000000  0.02797386  0.03938441       0.003
   0.00000000  0.05595517  0.02953304       0.003
   0.00000000  0.08393648  0.01968168       0.003
   0.00000000  0.11191779  0.00983031       0.003
   0.00000000  0.13989910 -0.00002106       0.003
   0.00000000 -0.11193269  0.08864124       0.003
   0.00000000 -0.08395138  0.07878988       0.003
   0.00000000 -0.05597007  0.06893851       0.003
   0.00000000 -0.02798876  0.05908714       0.003
   0.00000000 -0.00001118  0.07385366       0.002
   0.00000000  0.02797013  0.06400230       0.003
   0.00000000  0.05595144  0.05415093       0.003
   0.00000000  0.08393275  0.04429956       0.003
   0.00000000  0.11191406  0.03444820       0.003
   0.00000000  0.13989537  0.02459683       0.002
   0.02423616 -0.01399065  0.00492568       0.007
   0.02423616  0.04197196 -0.01477705       0.007
   0.02423616  0.06995327 -0.02462842       0.007
   0.02423616  0.09793458 -0.03447978       0.007
   0.02423616  0.12591589 -0.04433115       0.007
   0.02423616 -0.01399438  0.02954357       0.007
   0.02423616  0.01398693  0.01969220       0.007
   0.02423616  0.04196824  0.00984084       0.007
   0.02423616  0.06994955 -0.00001053       0.007
   0.02423616  0.09793086 -0.00986190       0.007
   0.02423616  0.12591217 -0.01971326       0.007
   0.02423616 -0.12591962  0.06894904       0.007
   0.02423616 -0.09793831  0.05909767       0.007
   0.02423616 -0.06995700  0.04924630       0.007
   0.02423616 -0.04197569  0.03939494       0.007
   0.02423616 -0.01399810  0.05416146       0.007
   0.02423616  0.01398320  0.04431009       0.007
   0.02423616  0.04196451  0.03445873       0.007
   0.02423616  0.06994582  0.02460736       0.007
   0.02423616  0.09792713  0.01475599       0.007
   0.02423616  0.12590844  0.00490463       0.007
   0.02423616 -0.12592334  0.09356693       0.007
   0.02423616 -0.09794203  0.08371556       0.007
   0.02423616 -0.06996072  0.07386419       0.007
   0.02423616 -0.04197941  0.06401283       0.007
   0.02423616 -0.01400183  0.07877935       0.007
   0.02423616  0.04196079  0.05907661       0.007
   0.02423616  0.06994210  0.04922525       0.007
   0.02423616  0.09792341  0.03937388       0.007
   0.02423616  0.12590472  0.02952251       0.007
   0.04847232 -0.02798131  0.00985137       0.007
   0.04847232 -0.00000000  0.00000000       0.003
   0.04847232  0.05596262 -0.01970273       0.007
   0.04847232  0.08394393 -0.02955410       0.007
   0.04847232  0.11192524 -0.03940547       0.007
   0.04847232 -0.13990655  0.04925683       0.003
   0.04847232 -0.02798503  0.03446925       0.007
   0.04847232 -0.00000373  0.02461789       0.007
   0.04847232  0.02797758  0.01476652       0.007
   0.04847232  0.05595889  0.00491515       0.007
   0.04847232  0.08394020 -0.00493621       0.007
   0.04847232  0.11192151 -0.01478758       0.007
   0.04847232 -0.13991027  0.07387472       0.007
   0.04847232 -0.11192896  0.06402335       0.007
   0.04847232 -0.08394765  0.05417199       0.007
   0.04847232 -0.05596634  0.04432062       0.007
   0.04847232 -0.02798876  0.05908714       0.007
   0.04847232 -0.00000745  0.04923578       0.007
   0.04847232  0.02797386  0.03938441       0.007
   0.04847232  0.05595517  0.02953304       0.007
   0.04847232  0.08393648  0.01968168       0.007
   0.04847232  0.11191779  0.00983031       0.007
   0.04847232 -0.13991400  0.09849261       0.007
   0.04847232 -0.11193269  0.08864124       0.007
   0.04847232 -0.08395138  0.07878988       0.007
   0.04847232 -0.05597007  0.06893851       0.007
   0.04847232 -0.02799248  0.08370503       0.007
   0.04847232 -0.00001118  0.07385366       0.003
   0.04847232  0.05595144  0.05415093       0.007
   0.04847232  0.08393275  0.04429956       0.007
   0.04847232  0.11191406  0.03444820       0.007
   0.04847232 -0.13991772  0.12311050       0.003
   0.07270848 -0.04197196  0.01477705       0.007
   0.07270848 -0.01399065  0.00492568       0.007
   0.07270848  0.06995327 -0.02462842       0.007
   0.07270848  0.09793458 -0.03447978       0.007
   0.07270848 -0.15389720  0.05418252       0.007
   0.07270848 -0.04197569  0.03939494       0.007
   0.07270848 -0.01399438  0.02954357       0.007
   0.07270848  0.01398693  0.01969220       0.007
   0.07270848  0.04196824  0.00984084       0.007
   0.07270848  0.06994955 -0.00001053       0.007
   0.07270848  0.09793086 -0.00986190       0.007
   0.07270848 -0.15390093  0.07880041       0.007
   0.07270848 -0.12591962  0.06894904       0.007
   0.07270848 -0.09793831  0.05909767       0.007
   0.07270848 -0.06995700  0.04924630       0.007
   0.07270848 -0.04197941  0.06401283       0.007
   0.07270848 -0.01399810  0.05416146       0.007
   0.07270848  0.01398320  0.04431009       0.007
   0.07270848  0.04196451  0.03445873       0.007
   0.07270848  0.06994582  0.02460736       0.007
   0.07270848  0.09792713  0.01475599       0.007
   0.07270848 -0.15390465  0.10341829       0.007
   0.07270848 -0.12592334  0.09356693       0.007
   0.07270848 -0.09794203  0.08371556       0.007
   0.07270848 -0.06996072  0.07386419       0.007
   0.07270848 -0.04198314  0.08863071       0.007
   0.07270848 -0.01400183  0.07877935       0.007
   0.07270848  0.06994210  0.04922525       0.007
   0.07270848  0.09792341  0.03937388       0.007
   0.07270848 -0.15390838  0.12803618       0.007
   0.09694464 -0.05596262  0.01970273       0.007
   0.09694464 -0.02798131  0.00985137       0.007
   0.09694464  0.00000000  0.00000000       0.003
   0.09694464  0.08394393 -0.02955410       0.007
   0.09694464 -0.16788786  0.05910820       0.007
   0.09694464 -0.13990655  0.04925683       0.003
   0.09694464 -0.05596634  0.04432062       0.007
   0.09694464 -0.02798503  0.03446925       0.007
   0.09694464 -0.00000373  0.02461789       0.007
   0.09694464  0.02797758  0.01476652       0.007
   0.09694464  0.05595889  0.00491515       0.007
   0.09694464  0.08394020 -0.00493621       0.007
   0.09694464 -0.16789158  0.08372609       0.007
   0.09694464 -0.13991027  0.07387472       0.007
   0.09694464 -0.11192896  0.06402335       0.007
   0.09694464 -0.08394765  0.05417199       0.007
   0.09694464 -0.05597007  0.06893851       0.007
   0.09694464 -0.02798876  0.05908714       0.007
   0.09694464 -0.00000745  0.04923578       0.007
   0.09694464  0.02797386  0.03938441       0.007
   0.09694464  0.05595517  0.02953304       0.007
   0.09694464  0.08393648  0.01968168       0.007
   0.09694464 -0.16789531  0.10834398       0.007
   0.09694464 -0.13991400  0.09849261       0.007
   0.09694464 -0.11193269  0.08864124       0.007
   0.09694464 -0.08395138  0.07878988       0.007
   0.09694464 -0.05597379  0.09355640       0.007
   0.09694464 -0.02799248  0.08370503       0.007
   0.09694464 -0.00001118  0.07385366       0.003
   0.09694464  0.08393275  0.04429956       0.007
   0.09694464 -0.16789903  0.13296186       0.007
   0.09694464 -0.13991772  0.12311050       0.003
   0.12118080 -0.06995327  0.02462842       0.003
   0.12118080 -0.04197196  0.01477705       0.007
   0.12118080 -0.01399065  0.00492568       0.007
   0.12118080 -0.06995700  0.04924630       0.007
   0.12118080 -0.04197569  0.03939494       0.007
   0.12118080 -0.01399438  0.02954357       0.007
   0.12118080  0.01398693  0.01969220       0.007
   0.12118080  0.04196824  0.00984084       0.007
   0.12118080 -0.06996072  0.07386419       0.007
   0.12118080 -0.04197941  0.06401283       0.007
   0.12118080 -0.01399810  0.05416146       0.007
   0.12118080  0.01398320  0.04431009       0.007
   0.12118080  0.04196451  0.03445873       0.007
   0.12118080 -0.06996445  0.09848208       0.003
   0.12118080 -0.04198314  0.08863071       0.007
   0.12118080 -0.01400183  0.07877935       0.007
 
 k-points in reciprocal lattice and weights: pymatgen v2019.10.16 with grid density =
   0.00000000  0.00000000  0.00000000       0.002
   0.10000000  0.00000000  0.00000000       0.003
   0.20000000  0.00000000  0.00000000       0.003
   0.30000000  0.00000000  0.00000000       0.003
   0.40000000  0.00000000  0.00000000       0.003
   0.50000000  0.00000000  0.00000000       0.002
  -0.00000000  0.16666667  0.00000000       0.003
   0.10000000  0.16666667  0.00000000       0.003
   0.20000000  0.16666667  0.00000000       0.003
   0.30000000  0.16666667  0.00000000       0.003
   0.40000000  0.16666667  0.00000000       0.003
   0.50000000  0.16666667  0.00000000       0.003
  -0.40000000  0.16666667  0.00000000       0.003
  -0.30000000  0.16666667  0.00000000       0.003
  -0.20000000  0.16666667  0.00000000       0.003
  -0.10000000  0.16666667  0.00000000       0.003
  -0.00000000  0.33333333  0.00000000       0.003
   0.10000000  0.33333333  0.00000000       0.003
   0.20000000  0.33333333  0.00000000       0.003
   0.30000000  0.33333333  0.00000000       0.003
   0.40000000  0.33333333  0.00000000       0.003
   0.50000000  0.33333333  0.00000000       0.003
  -0.40000000  0.33333333  0.00000000       0.003
  -0.30000000  0.33333333  0.00000000       0.003
  -0.20000000  0.33333333  0.00000000       0.003
  -0.10000000  0.33333333  0.00000000       0.003
   0.00000000  0.50000000  0.00000000       0.002
   0.10000000  0.50000000  0.00000000       0.003
   0.20000000  0.50000000  0.00000000       0.003
   0.30000000  0.50000000  0.00000000       0.003
   0.40000000  0.50000000  0.00000000       0.003
   0.50000000  0.50000000  0.00000000       0.002
  -0.00000000 -0.00000000  0.10000000       0.007
   0.20000000 -0.00000000  0.10000000       0.007
   0.30000000  0.00000000  0.10000000       0.007
   0.40000000 -0.00000000  0.10000000       0.007
   0.50000000 -0.00000000  0.10000000       0.007
  -0.00000000  0.16666667  0.10000000       0.007
   0.10000000  0.16666667  0.10000000       0.007
   0.20000000  0.16666667  0.10000000       0.007
   0.30000000  0.16666667  0.10000000       0.007
   0.40000000  0.16666667  0.10000000       0.007
   0.50000000  0.16666667  0.10000000       0.007
  -0.40000000  0.16666667  0.10000000       0.007
  -0.30000000  0.16666667  0.10000000       0.007
  -0.20000000  0.16666667  0.10000000       0.007
  -0.10000000  0.16666667  0.10000000       0.007
  -0.00000000  0.33333333  0.10000000       0.007
   0.10000000  0.33333333  0.10000000       0.007
   0.20000000  0.33333333  0.10000000       0.007
   0.30000000  0.33333333  0.10000000       0.007
   0.40000000  0.33333333  0.10000000       0.007
   0.50000000  0.33333333  0.10000000       0.007
  -0.40000000  0.33333333  0.10000000       0.007
  -0.30000000  0.33333333  0.10000000       0.007
  -0.20000000  0.33333333  0.10000000       0.007
  -0.10000000  0.33333333  0.10000000       0.007
  -0.00000000  0.50000000  0.10000000       0.007
   0.20000000  0.50000000  0.10000000       0.007
   0.30000000  0.50000000  0.10000000       0.007
   0.40000000  0.50000000  0.10000000       0.007
   0.50000000  0.50000000  0.10000000       0.007
  -0.00000000  0.00000000  0.20000000       0.007
   0.10000000  0.00000000  0.20000000       0.003
   0.30000000  0.00000000  0.20000000       0.007
   0.40000000 -0.00000000  0.20000000       0.007
   0.50000000 -0.00000000  0.20000000       0.007
  -0.40000000  0.00000000  0.20000000       0.003
  -0.00000000  0.16666667  0.20000000       0.007
   0.10000000  0.16666667  0.20000000       0.007
   0.20000000  0.16666667  0.20000000       0.007
   0.30000000  0.16666667  0.20000000       0.007
   0.40000000  0.16666667  0.20000000       0.007
   0.50000000  0.16666667  0.20000000       0.007
  -0.40000000  0.16666667  0.20000000       0.007
  -0.30000000  0.16666667  0.20000000       0.007
  -0.20000000  0.16666667  0.20000000       0.007
  -0.10000000  0.16666667  0.20000000       0.007
   0.00000000  0.33333333  0.20000000       0.007
   0.10000000  0.33333333  0.20000000       0.007
   0.20000000  0.33333333  0.20000000       0.007
   0.30000000  0.33333333  0.20000000       0.007
   0.40000000  0.33333333  0.20000000       0.007
   0.50000000  0.33333333  0.20000000       0.007
  -0.40000000  0.33333333  0.20000000       0.007
  -0.30000000  0.33333333  0.20000000       0.007
  -0.20000000  0.33333333  0.20000000       0.007
  -0.10000000  0.33333333  0.20000000       0.007
  -0.00000000  0.50000000  0.20000000       0.007
   0.10000000  0.50000000  0.20000000       0.003
   0.30000000  0.50000000  0.20000000       0.007
   0.40000000  0.50000000  0.20000000       0.007
   0.50000000  0.50000000  0.20000000       0.007
  -0.40000000  0.50000000  0.20000000       0.003
  -0.00000000  0.00000000  0.30000000       0.007
   0.10000000  0.00000000  0.30000000       0.007
   0.40000000 -0.00000000  0.30000000       0.007
   0.50000000  0.00000000  0.30000000       0.007
  -0.40000000  0.00000000  0.30000000       0.007
  -0.00000000  0.16666667  0.30000000       0.007
   0.10000000  0.16666667  0.30000000       0.007
   0.20000000  0.16666667  0.30000000       0.007
   0.30000000  0.16666667  0.30000000       0.007
   0.40000000  0.16666667  0.30000000       0.007
   0.50000000  0.16666667  0.30000000       0.007
  -0.40000000  0.16666667  0.30000000       0.007
  -0.30000000  0.16666667  0.30000000       0.007
  -0.20000000  0.16666667  0.30000000       0.007
  -0.10000000  0.16666667  0.30000000       0.007
  -0.00000000  0.33333333  0.30000000       0.007
   0.10000000  0.33333333  0.30000000       0.007
   0.20000000  0.33333333  0.30000000       0.007
   0.30000000  0.33333333  0.30000000       0.007
   0.40000000  0.33333333  0.30000000       0.007
   0.50000000  0.33333333  0.30000000       0.007
  -0.40000000  0.33333333  0.30000000       0.007
  -0.30000000  0.33333333  0.30000000       0.007
  -0.20000000  0.33333333  0.30000000       0.007
  -0.10000000  0.33333333  0.30000000       0.007
  -0.00000000  0.50000000  0.30000000       0.007
   0.10000000  0.50000000  0.30000000       0.007
   0.40000000  0.50000000  0.30000000       0.007
   0.50000000  0.50000000  0.30000000       0.007
  -0.40000000  0.50000000  0.30000000       0.007
  -0.00000000  0.00000000  0.40000000       0.007
   0.10000000  0.00000000  0.40000000       0.007
   0.20000000  0.00000000  0.40000000       0.003
   0.50000000 -0.00000000  0.40000000       0.007
  -0.40000000  0.00000000  0.40000000       0.007
  -0.30000000  0.00000000  0.40000000       0.003
  -0.00000000  0.16666667  0.40000000       0.007
   0.10000000  0.16666667  0.40000000       0.007
   0.20000000  0.16666667  0.40000000       0.007
   0.30000000  0.16666667  0.40000000       0.007
   0.40000000  0.16666667  0.40000000       0.007
   0.50000000  0.16666667  0.40000000       0.007
  -0.40000000  0.16666667  0.40000000       0.007
  -0.30000000  0.16666667  0.40000000       0.007
  -0.20000000  0.16666667  0.40000000       0.007
  -0.10000000  0.16666667  0.40000000       0.007
  -0.00000000  0.33333333  0.40000000       0.007
   0.10000000  0.33333333  0.40000000       0.007
   0.20000000  0.33333333  0.40000000       0.007
   0.30000000  0.33333333  0.40000000       0.007
   0.40000000  0.33333333  0.40000000       0.007
   0.50000000  0.33333333  0.40000000       0.007
  -0.40000000  0.33333333  0.40000000       0.007
  -0.30000000  0.33333333  0.40000000       0.007
  -0.20000000  0.33333333  0.40000000       0.007
  -0.10000000  0.33333333  0.40000000       0.007
  -0.00000000  0.50000000  0.40000000       0.007
   0.10000000  0.50000000  0.40000000       0.007
   0.20000000  0.50000000  0.40000000       0.003
   0.50000000  0.50000000  0.40000000       0.007
  -0.40000000  0.50000000  0.40000000       0.007
  -0.30000000  0.50000000  0.40000000       0.003
   0.00000000  0.00000000  0.50000000       0.003
   0.10000000  0.00000000  0.50000000       0.007
   0.20000000  0.00000000  0.50000000       0.007
  -0.00000000  0.16666667  0.50000000       0.007
   0.10000000  0.16666667  0.50000000       0.007
   0.20000000  0.16666667  0.50000000       0.007
   0.30000000  0.16666667  0.50000000       0.007
   0.40000000  0.16666667  0.50000000       0.007
   0.00000000  0.33333333  0.50000000       0.007
   0.10000000  0.33333333  0.50000000       0.007
   0.20000000  0.33333333  0.50000000       0.007
   0.30000000  0.33333333  0.50000000       0.007
   0.40000000  0.33333333  0.50000000       0.007
  -0.00000000  0.50000000  0.50000000       0.003
   0.10000000  0.50000000  0.50000000       0.007
   0.20000000  0.50000000  0.50000000       0.007
 
 position of ions in fractional coordinates (direct lattice) 
   0.00000000  0.50000000  0.50000000
   0.00000000  0.00000000  0.00000000
   0.50001661  0.24997468  0.74999170
   0.49998339  0.75002532  0.25000830
 
 position of ions in cartesian coordinates  (Angst):
   2.06303310  1.19184440  3.38525278
   0.00000000  0.00000000  0.00000000
   4.12606619  2.38292350  1.69272536
   2.06303310  3.57476991  5.07832101
 


--------------------------------------------------------------------------------------------------------


 k-point  1 :   0.0000 0.0000 0.0000  plane waves:    2713
 k-point  2 :   0.1000 0.0000 0.0000  plane waves:    2707
 k-point  3 :   0.2000 0.0000 0.0000  plane waves:    2692
 k-point  4 :   0.3000 0.0000 0.0000  plane waves:    2697
 k-point  5 :   0.4000 0.0000 0.0000  plane waves:    2684
 k-point  6 :   0.5000 0.0000 0.0000  plane waves:    2706
 k-point  7 :  -0.0000 0.1667 0.0000  plane waves:    2719
 k-point  8 :   0.1000 0.1667 0.0000  plane waves:    2698
 k-point  9 :   0.2000 0.1667 0.0000  plane waves:    2700
 k-point 10 :   0.3000 0.1667 0.0000  plane waves:    2683
 k-point 11 :   0.4000 0.1667 0.0000  plane waves:    2687
 k-point 12 :   0.5000 0.1667 0.0000  plane waves:    2686
 k-point 13 :  -0.4000 0.1667 0.0000  plane waves:    2693
 k-point 14 :  -0.3000 0.1667 0.0000  plane waves:    2682
 k-point 15 :  -0.2000 0.1667 0.0000  plane waves:    2706
 k-point 16 :  -0.1000 0.1667 0.0000  plane waves:    2701
 k-point 17 :  -0.0000 0.3333 0.0000  plane waves:    2704
 k-point 18 :   0.1000 0.3333 0.0000  plane waves:    2699
 k-point 19 :   0.2000 0.3333 0.0000  plane waves:    2688
 k-point 20 :   0.3000 0.3333 0.0000  plane waves:    2682
 k-point 21 :   0.4000 0.3333 0.0000  plane waves:    2688
 k-point 22 :   0.5000 0.3333 0.0000  plane waves:    2684
 k-point 23 :  -0.4000 0.3333 0.0000  plane waves:    2681
 k-point 24 :  -0.3000 0.3333 0.0000  plane waves:    2684
 k-point 25 :  -0.2000 0.3333 0.0000  plane waves:    2683
 k-point 26 :  -0.1000 0.3333 0.0000  plane waves:    2699
 k-point 27 :   0.0000 0.5000 0.0000  plane waves:    2690
 k-point 28 :   0.1000 0.5000 0.0000  plane waves:    2694
 k-point 29 :   0.2000 0.5000 0.0000  plane waves:    2684
 k-point 30 :   0.3000 0.5000 0.0000  plane waves:    2678
 k-point 31 :   0.4000 0.5000 0.0000  plane waves:    2680
 k-point 32 :   0.5000 0.5000 0.0000  plane waves:    2688
 k-point 33 :  -0.0000-0.0000 0.1000  plane waves:    2701
 k-point 34 :   0.2000-0.0000 0.1000  plane waves:    2697
 k-point 35 :   0.3000 0.0000 0.1000  plane waves:    2694
 k-point 36 :   0.4000-0.0000 0.1000  plane waves:    2684
 k-point 37 :   0.5000-0.0000 0.1000  plane waves:    2688
 k-point 38 :  -0.0000 0.1667 0.1000  plane waves:    2696
 k-point 39 :   0.1000 0.1667 0.1000  plane waves:    2699
 k-point 40 :   0.2000 0.1667 0.1000  plane waves:    2700
 k-point 41 :   0.3000 0.1667 0.1000  plane waves:    2700
 k-point 42 :   0.4000 0.1667 0.1000  plane waves:    2687
 k-point 43 :   0.5000 0.1667 0.1000  plane waves:    2691
 k-point 44 :  -0.4000 0.1667 0.1000  plane waves:    2688
 k-point 45 :  -0.3000 0.1667 0.1000  plane waves:    2688
 k-point 46 :  -0.2000 0.1667 0.1000  plane waves:    2691
 k-point 47 :  -0.1000 0.1667 0.1000  plane waves:    2695
 k-point 48 :  -0.0000 0.3333 0.1000  plane waves:    2694
 k-point 49 :   0.1000 0.3333 0.1000  plane waves:    2705
 k-point 50 :   0.2000 0.3333 0.1000  plane waves:    2694
 k-point 51 :   0.3000 0.3333 0.1000  plane waves:    2687
 k-point 52 :   0.4000 0.3333 0.1000  plane waves:    2689
 k-point 53 :   0.5000 0.3333 0.1000  plane waves:    2681
 k-point 54 :  -0.4000 0.3333 0.1000  plane waves:    2688
 k-point 55 :  -0.3000 0.3333 0.1000  plane waves:    2686
 k-point 56 :  -0.2000 0.3333 0.1000  plane waves:    2682
 k-point 57 :  -0.1000 0.3333 0.1000  plane waves:    2693
 k-point 58 :  -0.0000 0.5000 0.1000  plane waves:    2691
 k-point 59 :   0.2000 0.5000 0.1000  plane waves:    2691
 k-point 60 :   0.3000 0.5000 0.1000  plane waves:    2685
 k-point 61 :   0.4000 0.5000 0.1000  plane waves:    2682
 k-point 62 :   0.5000 0.5000 0.1000  plane waves:    2684
 k-point 63 :  -0.0000 0.0000 0.2000  plane waves:    2697
 k-point 64 :   0.1000 0.0000 0.2000  plane waves:    2703
 k-point 65 :   0.3000 0.0000 0.2000  plane waves:    2692
 k-point 66 :   0.4000-0.0000 0.2000  plane waves:    2686
 k-point 67 :   0.5000-0.0000 0.2000  plane waves:    2683
 k-point 68 :  -0.4000 0.0000 0.2000  plane waves:    2686
 k-point 69 :  -0.0000 0.1667 0.2000  plane waves:    2690
 k-point 70 :   0.1000 0.1667 0.2000  plane waves:    2692
 k-point 71 :   0.2000 0.1667 0.2000  plane waves:    2690
 k-point 72 :   0.3000 0.1667 0.2000  plane waves:    2697
 k-point 73 :   0.4000 0.1667 0.2000  plane waves:    2684
 k-point 74 :   0.5000 0.1667 0.2000  plane waves:    2691
 k-point 75 :  -0.4000 0.1667 0.2000  plane waves:    2694
 k-point 76 :  -0.3000 0.1667 0.2000  plane waves:    2682
 k-point 77 :  -0.2000 0.1667 0.2000  plane waves:    2691
 k-point 78 :  -0.1000 0.1667 0.2000  plane waves:    2684
 k-point 79 :   0.0000 0.3333 0.2000  plane waves:    2679
 k-point 80 :   0.1000 0.3333 0.2000  plane waves:    2693
 k-point 81 :   0.2000 0.3333 0.2000  plane waves:    2703
 k-point 82 :   0.3000 0.3333 0.2000  plane waves:    2692
 k-point 83 :   0.4000 0.3333 0.2000  plane waves:    2689
 k-point 84 :   0.5000 0.3333 0.2000  plane waves:    2690
 k-point 85 :  -0.4000 0.3333 0.2000  plane waves:    2685
 k-point 86 :  -0.3000 0.3333 0.2000  plane waves:    2682
 k-point 87 :  -0.2000 0.3333 0.2000  plane waves:    2692
 k-point 88 :  -0.1000 0.3333 0.2000  plane waves:    2681
 k-point 89 :  -0.0000 0.5000 0.2000  plane waves:    2689
 k-point 90 :   0.1000 0.5000 0.2000  plane waves:    2696
 k-point 91 :   0.3000 0.5000 0.2000  plane waves:    2690
 k-point 92 :   0.4000 0.5000 0.2000  plane waves:    2689
 k-point 93 :   0.5000 0.5000 0.2000  plane waves:    2685
 k-point 94 :  -0.4000 0.5000 0.2000  plane waves:    2694
 k-point 95 :  -0.0000 0.0000 0.3000  plane waves:    2684
 k-point 96 :   0.1000 0.0000 0.3000  plane waves:    2700
 k-point 97 :   0.4000-0.0000 0.3000  plane waves:    2682
 k-point 98 :   0.5000 0.0000 0.3000  plane waves:    2685
 k-point 99 :  -0.4000 0.0000 0.3000  plane waves:    2686
 k-point ** :  -0.0000 0.1667 0.3000  plane waves:    2682
 k-point ** :   0.1000 0.1667 0.3000  plane waves:    2686
 k-point ** :   0.2000 0.1667 0.3000  plane waves:    2694
 k-point ** :   0.3000 0.1667 0.3000  plane waves:    2685
 k-point ** :   0.4000 0.1667 0.3000  plane waves:    2689
 k-point ** :   0.5000 0.1667 0.3000  plane waves:    2689
 k-point ** :  -0.4000 0.1667 0.3000  plane waves:    2685
 k-point ** :  -0.3000 0.1667 0.3000  plane waves:    2672
 k-point ** :  -0.2000 0.1667 0.3000  plane waves:    2681
 k-point ** :  -0.1000 0.1667 0.3000  plane waves:    2679
 k-point ** :  -0.0000 0.3333 0.3000  plane waves:    2683
 k-point ** :   0.1000 0.3333 0.3000  plane waves:    2684
 k-point ** :   0.2000 0.3333 0.3000  plane waves:    2687
 k-point ** :   0.3000 0.3333 0.3000  plane waves:    2695
 k-point ** :   0.4000 0.3333 0.3000  plane waves:    2688
 k-point ** :   0.5000 0.3333 0.3000  plane waves:    2688
 k-point ** :  -0.4000 0.3333 0.3000  plane waves:    2681
 k-point ** :  -0.3000 0.3333 0.3000  plane waves:    2677
 k-point ** :  -0.2000 0.3333 0.3000  plane waves:    2682
 k-point ** :  -0.1000 0.3333 0.3000  plane waves:    2684
 k-point ** :  -0.0000 0.5000 0.3000  plane waves:    2689
 k-point ** :   0.1000 0.5000 0.3000  plane waves:    2685
 k-point ** :   0.4000 0.5000 0.3000  plane waves:    2683
 k-point ** :   0.5000 0.5000 0.3000  plane waves:    2683
 k-point ** :  -0.4000 0.5000 0.3000  plane waves:    2687
 k-point ** :  -0.0000 0.0000 0.4000  plane waves:    2684
 k-point ** :   0.1000 0.0000 0.4000  plane waves:    2692
 k-point ** :   0.2000 0.0000 0.4000  plane waves:    2684
 k-point ** :   0.5000-0.0000 0.4000  plane waves:    2684
 k-point ** :  -0.4000 0.0000 0.4000  plane waves:    2685
 k-point ** :  -0.3000 0.0000 0.4000  plane waves:    2678
 k-point ** :  -0.0000 0.1667 0.4000  plane waves:    2691
 k-point ** :   0.1000 0.1667 0.4000  plane waves:    2682
 k-point ** :   0.2000 0.1667 0.4000  plane waves:    2686
 k-point ** :   0.3000 0.1667 0.4000  plane waves:    2685
 k-point ** :   0.4000 0.1667 0.4000  plane waves:    2684
 k-point ** :   0.5000 0.1667 0.4000  plane waves:    2679
 k-point ** :  -0.4000 0.1667 0.4000  plane waves:    2682
 k-point ** :  -0.3000 0.1667 0.4000  plane waves:    2687
 k-point ** :  -0.2000 0.1667 0.4000  plane waves:    2689
 k-point ** :  -0.1000 0.1667 0.4000  plane waves:    2687
 k-point ** :  -0.0000 0.3333 0.4000  plane waves:    2700
 k-point ** :   0.1000 0.3333 0.4000  plane waves:    2688
 k-point ** :   0.2000 0.3333 0.4000  plane waves:    2689
 k-point ** :   0.3000 0.3333 0.4000  plane waves:    2681
 k-point ** :   0.4000 0.3333 0.4000  plane waves:    2683
 k-point ** :   0.5000 0.3333 0.4000  plane waves:    2691
 k-point ** :  -0.4000 0.3333 0.4000  plane waves:    2683
 k-point ** :  -0.3000 0.3333 0.4000  plane waves:    2680
 k-point ** :  -0.2000 0.3333 0.4000  plane waves:    2684
 k-point ** :  -0.1000 0.3333 0.4000  plane waves:    2688
 k-point ** :  -0.0000 0.5000 0.4000  plane waves:    2692
 k-point ** :   0.1000 0.5000 0.4000  plane waves:    2690
 k-point ** :   0.2000 0.5000 0.4000  plane waves:    2686
 k-point ** :   0.5000 0.5000 0.4000  plane waves:    2688
 k-point ** :  -0.4000 0.5000 0.4000  plane waves:    2688
 k-point ** :  -0.3000 0.5000 0.4000  plane waves:    2674
 k-point ** :   0.0000 0.0000 0.5000  plane waves:    2688
 k-point ** :   0.1000 0.0000 0.5000  plane waves:    2686
 k-point ** :   0.2000 0.0000 0.5000  plane waves:    2692
 k-point ** :  -0.0000 0.1667 0.5000  plane waves:    2684
 k-point ** :   0.1000 0.1667 0.5000  plane waves:    2683
 k-point ** :   0.2000 0.1667 0.5000  plane waves:    2683
 k-point ** :   0.3000 0.1667 0.5000  plane waves:    2690
 k-point ** :   0.4000 0.1667 0.5000  plane waves:    2684
 k-point ** :   0.0000 0.3333 0.5000  plane waves:    2687
 k-point ** :   0.1000 0.3333 0.5000  plane waves:    2691
 k-point ** :   0.2000 0.3333 0.5000  plane waves:    2682
 k-point ** :   0.3000 0.3333 0.5000  plane waves:    2680
 k-point ** :   0.4000 0.3333 0.5000  plane waves:    2686
 k-point ** :  -0.0000 0.5000 0.5000  plane waves:    2706
 k-point ** :   0.1000 0.5000 0.5000  plane waves:    2691
 k-point ** :   0.2000 0.5000 0.5000  plane waves:    2682

 maximum and minimum number of plane-waves per node :       694      652

 maximum number of plane-waves:      2719
 maximum index in each direction: 
   IXMAX=    8   IYMAX=   13   IZMAX=    7
   IXMIN=   -8   IYMIN=  -13   IZMIN=   -8


 real space projection operators:
  total allocation   :       5342.00 KBytes
  max/ min on nodes  :       1344.25       1331.25


 parallel 3D FFT for wavefunctions:
    minimum data exchange during FFTs selected (reduces bandwidth)
 parallel 3D FFT for charge:
    minimum data exchange during FFTs selected (reduces bandwidth)


 total amount of memory used by VASP MPI-rank0    96184. kBytes
=======================================================================

   base      :      30000. kBytes
   nonlr-proj:       2321. kBytes
   fftplans  :       2319. kBytes
   grid      :       5658. kBytes
   one-center:         98. kBytes
   wavefun   :      55788. kBytes
 
     INWAV:  cpu time    0.0000: real time    0.0001
 Broyden mixing: mesh for mixing (old mesh)
   NGX = 15   NGY = 27   NGZ = 15
  (NGX  = 64   NGY  =108   NGZ  = 64)
  gives a total of   6075 points

 initial charge density was supplied:
 charge density of overlapping atoms calculated
 number of electron      46.0000000 magnetization       1.2000000
 keeping initial charge density in first step


--------------------------------------------------------------------------------------------------------


 Maximum index for non-local projection operator         2423
 Maximum index for augmentation-charges         3815 (set IRDMAX)


--------------------------------------------------------------------------------------------------------


 First call to EWALD:  gamma=   0.382
 Maximum number of real-space cells 4x 2x 3
 Maximum number of reciprocal cells 2x 4x 2

    FEWALD:  cpu time    0.0014: real time    0.0014


--------------------------------------- Iteration      1(   1)  ---------------------------------------


    POTLOK:  cpu time    0.0716: real time    0.0818
    SETDIJ:  cpu time    1.1482: real time    1.1526
     EDDAV:  cpu time   14.4896: real time   14.5411
 BZINTS: Fermi energy: 14.080523; 46.000000 electrons
         Band energy: 215.264529;  BLOECHL correction: -0.433943
       DOS:  cpu time    0.1990: real time    0.1994
    --------------------------------------------
      LOOP:  cpu time   15.9084: real time   15.9749

 eigenvalue-minimisations  : 21076
 total energy-change (2. order) : 0.4416867E+03  (-0.1781105E+04)
 number of electron      46.0000000 magnetization       1.2000000
 augmentation part       46.0000000 magnetization       1.2000000

 Free energy of the ion-electron system (eV)
  ---------------------------------------------------
  alpha Z        PSCENC =       299.45687435
  Ewald energy   TEWEN  =     -4218.75836599
  -Hartree energ DENC   =     -1567.94780937
  -exchange      EXHF   =         0.00000000
  -V(xc)+E(xc)   XCENC  =       201.64777647
  PAW double counting   =      4858.25502547    -5139.48809965
  entropy T*S    EENTRO =         0.00000000
  eigenvalues    EBANDS =       215.26452908
  atomic energy  EATOM  =      5793.25680244
  Solvation  Ediel_sol  =         0.00000000
  ---------------------------------------------------
  free energy    TOTEN  =       441.68673280 eV

  energy without entropy =      441.68673280  energy(sigma->0) =      441.68673280


--------------------------------------------------------------------------------------------------------




--------------------------------------- Iteration      1(   2)  ---------------------------------------


     EDDAV:  cpu time   18.7987: real time   18.8456
 BZINTS: Fermi energy:  8.264501; 46.000000 electrons
         Band energy:-179.638143;  BLOECHL correction: -0.595892
       DOS:  cpu time    0.2086: real time    0.2091
    --------------------------------------------
      LOOP:  cpu time   19.0074: real time   19.0547

 eigenvalue-minimisations  : 28936
 total energy-change (2. order) :-0.3949027E+03  (-0.3726397E+03)
 number of electron      46.0000000 magnetization       1.2000000
 augmentation part       46.0000000 magnetization       1.2000000

 Free energy of the ion-electron system (eV)
  ---------------------------------------------------
  alpha Z        PSCENC =       299.45687435
  Ewald energy   TEWEN  =     -4218.75836599
  -Hartree energ DENC   =     -1567.94780937
  -exchange      EXHF   =         0.00000000
  -V(xc)+E(xc)   XCENC  =       201.64777647
  PAW double counting   =      4858.25502547    -5139.48809965
  entropy T*S    EENTRO =         0.00000000
  eigenvalues    EBANDS =      -179.63814344
  atomic energy  EATOM  =      5793.25680244
  Solvation  Ediel_sol  =         0.00000000
  ---------------------------------------------------
  free energy    TOTEN  =        46.78406028 eV

  energy without entropy =       46.78406028  energy(sigma->0) =       46.78406028


--------------------------------------------------------------------------------------------------------




--------------------------------------- Iteration      1(   3)  ---------------------------------------


     EDDAV:  cpu time   19.0155: real time   19.0610
 BZINTS: Fermi energy:  5.884103; 46.000000 electrons
         Band energy:-252.763871;  BLOECHL correction: -0.087564
       DOS:  cpu time    0.2135: real time    0.2148
    --------------------------------------------
      LOOP:  cpu time   19.2289: real time   19.2758

 eigenvalue-minimisations  : 29640
 total energy-change (2. order) :-0.7312573E+02  (-0.7212242E+02)
 number of electron      46.0000000 magnetization       1.2000000
 augmentation part       46.0000000 magnetization       1.2000000

 Free energy of the ion-electron system (eV)
  ---------------------------------------------------
  alpha Z        PSCENC =       299.45687435
  Ewald energy   TEWEN  =     -4218.75836599
  -Hartree energ DENC   =     -1567.94780937
  -exchange      EXHF   =         0.00000000
  -V(xc)+E(xc)   XCENC  =       201.64777647
  PAW double counting   =      4858.25502547    -5139.48809965
  entropy T*S    EENTRO =         0.00000000
  eigenvalues    EBANDS =      -252.76387092
  atomic energy  EATOM  =      5793.25680244
  Solvation  Ediel_sol  =         0.00000000
  ---------------------------------------------------
  free energy    TOTEN  =       -26.34166720 eV

  energy without entropy =      -26.34166720  energy(sigma->0) =      -26.34166720


--------------------------------------------------------------------------------------------------------




--------------------------------------- Iteration      1(   4)  ---------------------------------------


     EDDAV:  cpu time   21.4035: real time   21.4544
 BZINTS: Fermi energy:  5.599905; 46.000000 electrons
         Band energy:-258.116976;  BLOECHL correction: -0.002419
       DOS:  cpu time    0.2210: real time    0.2215
    --------------------------------------------
      LOOP:  cpu time   21.6245: real time   21.6759

 eigenvalue-minimisations  : 33872
 total energy-change (2. order) :-0.5353106E+01  (-0.5239691E+01)
 number of electron      46.0000000 magnetization       1.2000000
 augmentation part       46.0000000 magnetization       1.2000000

 Free energy of the ion-electron system (eV)
  ---------------------------------------------------
  alpha Z        PSCENC =       299.45687435
  Ewald energy   TEWEN  =     -4218.75836599
  -Hartree energ DENC   =     -1567.94780937
  -exchange      EXHF   =         0.00000000
  -V(xc)+E(xc)   XCENC  =       201.64777647
  PAW double counting   =      4858.25502547    -5139.48809965
  entropy T*S    EENTRO =         0.00000000
  eigenvalues    EBANDS =      -258.11697647
  atomic energy  EATOM  =      5793.25680244
  Solvation  Ediel_sol  =         0.00000000
  ---------------------------------------------------
  free energy    TOTEN  =       -31.69477276 eV

  energy without entropy =      -31.69477276  energy(sigma->0) =      -31.69477276


--------------------------------------------------------------------------------------------------------




--------------------------------------- Iteration      1(   5)  ---------------------------------------


     EDDAV:  cpu time   21.6669: real time   21.7189
 BZINTS: Fermi energy:  5.588543; 46.000000 electrons
         Band energy:-258.659358;  BLOECHL correction: -0.001996
       DOS:  cpu time    0.2057: real time    0.2061
    CHARGE:  cpu time    0.9037: real time    0.9058
    MIXING:  cpu time    0.0018: real time    0.0018
    --------------------------------------------
      LOOP:  cpu time   22.7780: real time   22.8327

 eigenvalue-minimisations  : 34248
 total energy-change (2. order) :-0.5423815E+00  (-0.5354045E+00)
 number of electron      45.9999999 magnetization       0.3385786
 augmentation part        7.3800643 magnetization       0.2378307

 Broyden mixing:
  rms(total) = 0.19346E+01    rms(broyden)= 0.19346E+01
  rms(prec ) = 0.26524E+01
  weight for this iteration     100.00

 Free energy of the ion-electron system (eV)
  ---------------------------------------------------
  alpha Z        PSCENC =       299.45687435
  Ewald energy   TEWEN  =     -4218.75836599
  -Hartree energ DENC   =     -1567.94780937
  -exchange      EXHF   =         0.00000000
  -V(xc)+E(xc)   XCENC  =       201.64777647
  PAW double counting   =      4858.25502547    -5139.48809965
  entropy T*S    EENTRO =         0.00000000
  eigenvalues    EBANDS =      -258.65935795
  atomic energy  EATOM  =      5793.25680244
  Solvation  Ediel_sol  =         0.00000000
  ---------------------------------------------------
  free energy    TOTEN  =       -32.23715423 eV

  energy without entropy =      -32.23715423  energy(sigma->0) =      -32.23715423


--------------------------------------------------------------------------------------------------------




--------------------------------------- Iteration      1(   6)  ---------------------------------------


    POTLOK:  cpu time    0.0716: real time    0.0719
    SETDIJ:  cpu time    1.3066: real time    1.3097
     EDDAV:  cpu time   19.1676: real time   19.2138
 BZINTS: Fermi energy:  2.236317; 46.000000 electrons
         Band energy:-375.634456;  BLOECHL correction:  0.000000
       DOS:  cpu time    0.0329: real time    0.0330
    CHARGE:  cpu time    0.8839: real time    0.8860
    MIXING:  cpu time    0.0017: real time    0.0017
    --------------------------------------------
      LOOP:  cpu time   21.4643: real time   21.5162

 eigenvalue-minimisations  : 29868
 total energy-change (2. order) :-0.6214626E+01  (-0.1133247E+02)
 number of electron      45.9999999 magnetization       0.2087973
 augmentation part        9.6210917 magnetization       0.2228630

 Broyden mixing:
  rms(total) = 0.23525E+01    rms(broyden)= 0.23525E+01
  rms(prec ) = 0.25265E+01
  weight for this iteration     100.00

 eigenvalues of (default mixing * dielectric matrix)
  average eigenvalue GAMMA=   0.3719
  0.3719

 Free energy of the ion-electron system (eV)
  ---------------------------------------------------
  alpha Z        PSCENC =       299.45687435
  Ewald energy   TEWEN  =     -4218.75836599
  -Hartree energ DENC   =     -1475.53280775
  -exchange      EXHF   =         0.00000000
  -V(xc)+E(xc)   XCENC  =       195.54627115
  PAW double counting   =      4827.08418210    -5083.87028067
  entropy T*S    EENTRO =         0.00000000
  eigenvalues    EBANDS =      -375.63445567
  atomic energy  EATOM  =      5793.25680244
  Solvation  Ediel_sol  =         0.00000000
  ---------------------------------------------------
  free energy    TOTEN  =       -38.45178004 eV

  energy without entropy =      -38.45178004  energy(sigma->0) =      -38.45178004


--------------------------------------------------------------------------------------------------------




--------------------------------------- Iteration      1(   7)  ---------------------------------------


    POTLOK:  cpu time    0.0706: real time    0.0709
    SETDIJ:  cpu time    1.3325: real time    1.3356
     EDDAV:  cpu time   18.6475: real time   18.6915
 BZINTS: Fermi energy:  2.615176; 46.000000 electrons
         Band energy:-331.980490;  BLOECHL correction:  0.000000
       DOS:  cpu time    0.0307: real time    0.0308
[...]
 -0.000   0.000   0.000 -17.514   0.000   0.000   7.789  -0.000
 -0.000   0.000   0.000   0.000 -17.515  -0.000  -0.000   7.789
 -0.000  -0.000   7.789   0.000  -0.000   5.135  -0.000   0.000
 -0.000  -0.000   0.000   7.789  -0.000  -0.000   5.135   0.000
 -0.000  -0.000  -0.000  -0.000   7.789   0.000   0.000   5.135
 -0.000   0.000  -0.000  -0.000  -0.000  -0.000   0.000  -0.000
  0.000  -0.000  -0.000  -0.000  -0.000  -0.000  -0.000   0.000
  0.000   0.000   0.000  -0.000   0.000   0.000  -0.000   0.000
 -0.000   0.000  -0.000  -0.000  -0.000   0.000  -0.000  -0.000
  0.000   0.000   0.000  -0.000   0.000   0.000  -0.000  -0.000
  0.000  -0.000  -0.000   0.000   0.000   0.000  -0.000   0.000
 -0.000   0.000   0.000   0.000   0.000   0.000   0.000  -0.000
 -0.000  -0.000  -0.000  -0.000   0.000  -0.000   0.000  -0.000
  0.000  -0.000   0.000  -0.000   0.000  -0.000   0.000   0.000
 -0.000  -0.000  -0.000  -0.000  -0.000  -0.000   0.000   0.000
  0.000  -0.000   0.000  -0.011   0.000  -0.000   0.008  -0.000
 -0.000   0.000   0.000  -0.000  -0.014  -0.000  -0.000   0.009
  0.000  -0.000   0.007  -0.000  -0.000  -0.004   0.000   0.000
 -0.000   0.000   0.000  -0.010  -0.000  -0.000   0.007   0.000
  0.000  -0.000  -0.000  -0.000   0.007   0.000  -0.000  -0.004
  0.000  -0.000  -0.014   0.000   0.000   0.009  -0.000  -0.000
 -0.000   0.000  -0.000  -0.000   0.000   0.000   0.000  -0.000
  0.000  -0.000   0.000  -0.011   0.000  -0.000   0.007  -0.000
 -0.000   0.000   0.000  -0.000  -0.013  -0.000  -0.000   0.009
  0.000  -0.000   0.006  -0.000  -0.000  -0.004   0.000   0.000
 -0.000   0.000   0.000  -0.009  -0.000  -0.000   0.007   0.000
  0.000  -0.000  -0.000  -0.000   0.006   0.000   0.000  -0.004
  0.000  -0.000  -0.013   0.000   0.000   0.009  -0.000  -0.000
 -0.000   0.000  -0.000  -0.000   0.000   0.000   0.000  -0.000
 pseudopotential strength for first ion, spin component:           2
 -8.479  -4.182  -0.000  -0.000  -0.000  -0.000  -0.000  -0.000
 -4.182  -0.256   0.000   0.000   0.000  -0.000  -0.000  -0.000
 -0.000   0.000 -15.624  -0.000  -0.000   7.407   0.000   0.000
 -0.000   0.000  -0.000 -15.624   0.000   0.000   7.406  -0.000
 -0.000   0.000  -0.000   0.000 -15.624   0.000  -0.000   7.407
 -0.000  -0.000   7.407   0.000   0.000   4.899  -0.000  -0.000
 -0.000  -0.000   0.000   7.406  -0.000  -0.000   4.900   0.000
 -0.000  -0.000   0.000  -0.000   7.407  -0.000   0.000   4.900
  0.000  -0.000  -0.000   0.000  -0.000  -0.000   0.000  -0.000
 -0.000   0.000  -0.000  -0.000   0.000  -0.000  -0.000   0.000
  0.000  -0.000   0.000  -0.000   0.000   0.000  -0.000   0.000
 -0.000   0.000   0.000  -0.000   0.000   0.000  -0.000  -0.000
  0.000  -0.000   0.000   0.000  -0.000   0.000  -0.000  -0.000
 -0.000   0.000  -0.000   0.000  -0.000   0.000  -0.000   0.000
  0.000  -0.000  -0.000   0.000   0.000   0.000   0.000  -0.000
 -0.000   0.000  -0.000  -0.000   0.000  -0.000   0.000  -0.000
  0.000  -0.000   0.000  -0.000  -0.000  -0.000   0.000   0.000
 -0.000   0.000  -0.000  -0.000  -0.000  -0.000   0.000   0.000
  0.000  -0.000   0.000   0.000  -0.000  -0.000  -0.001   0.000
 -0.000   0.000   0.000  -0.000   0.000  -0.000   0.000  -0.002
  0.000  -0.000  -0.000   0.000  -0.000   0.001  -0.000   0.000
 -0.000   0.000   0.000   0.000  -0.000  -0.000  -0.001   0.000
  0.000  -0.000  -0.000  -0.000  -0.000   0.000  -0.000   0.001
  0.000  -0.000   0.000   0.000   0.000  -0.002  -0.000  -0.000
 -0.000   0.000  -0.000  -0.000   0.000   0.000   0.000  -0.000
  0.000  -0.000   0.000   0.000  -0.000  -0.000  -0.001   0.000
 -0.000   0.000   0.000  -0.000   0.000  -0.000   0.000  -0.002
  0.000  -0.000   0.000   0.000  -0.000   0.001  -0.000   0.000
 -0.000   0.000   0.000   0.000  -0.000  -0.000  -0.001   0.000
  0.000  -0.000  -0.000  -0.000   0.000   0.000  -0.000   0.001
  0.000  -0.000   0.000   0.000   0.000  -0.002  -0.000  -0.000
 -0.000   0.000  -0.000  -0.000   0.000   0.000   0.000  -0.000
 total augmentation occupancy for first ion, spin component:           1
  1.995  -0.025   0.000   0.000   0.000   0.000   0.000   0.000   0.000  -0.000  -0.000   0.000  -0.000   0.000  -0.000   0.000
 -0.025   0.576   0.000   0.000   0.000   0.000   0.000   0.000   0.000  -0.000   0.001   0.000   0.000   0.000  -0.000   0.000
  0.000   0.000   2.011  -0.000   0.000  -0.015   0.000   0.000   0.000   0.000   0.000   0.000   0.000   0.000   0.000   0.000
  0.000   0.000  -0.000   2.011   0.000   0.000  -0.015   0.000   0.000   0.000   0.000   0.000   0.000   0.000   0.000   0.000
  0.000   0.000   0.000   0.000   2.011   0.000   0.000  -0.015   0.000   0.000   0.000   0.000   0.000   0.000   0.000   0.000
  0.000   0.000  -0.015   0.000   0.000   0.017  -0.000   0.000   0.000   0.000   0.000   0.000   0.000   0.000   0.000   0.000
  0.000   0.000   0.000  -0.015   0.000  -0.000   0.017   0.000   0.000   0.000   0.000   0.000   0.000   0.000   0.000   0.000
  0.000   0.000   0.000   0.000  -0.015   0.000   0.000   0.017   0.000   0.000   0.000   0.000   0.000   0.000   0.000   0.000
  0.000   0.000   0.000   0.000   0.000   0.000   0.000   0.000   0.175   0.000   0.000  -0.092   0.000   0.046   0.000   0.000
 -0.000  -0.000   0.000   0.000   0.000   0.000   0.000   0.000   0.000   0.241   0.000   0.000  -0.092   0.000   0.065   0.000
 -0.000   0.001   0.000   0.000   0.000   0.000   0.000   0.000   0.000   0.000   0.110   0.000   0.000   0.000   0.000   0.026
  0.000   0.000   0.000   0.000   0.000   0.000   0.000   0.000  -0.092   0.000   0.000   0.241   0.000  -0.028   0.000   0.000
 -0.000   0.000   0.000   0.000   0.000   0.000   0.000   0.000   0.000  -0.092   0.000   0.000   0.175   0.000  -0.028   0.000
  0.000   0.000   0.000   0.000   0.000   0.000   0.000   0.000   0.046   0.000   0.000  -0.028   0.000   0.012   0.000   0.000
 -0.000  -0.000   0.000   0.000   0.000   0.000   0.000   0.000   0.000   0.065   0.000   0.000  -0.028   0.000   0.018   0.000
  0.000   0.000   0.000   0.000   0.000   0.000   0.000   0.000   0.000   0.000   0.026   0.000   0.000   0.000   0.000   0.006
  0.000   0.000   0.000   0.000   0.000   0.000   0.000   0.000  -0.028   0.000   0.000   0.065   0.000  -0.008   0.000   0.000
  0.000   0.000   0.000   0.000   0.000   0.000   0.000   0.000   0.000  -0.028   0.000   0.000   0.045   0.000  -0.008   0.000
  0.000   0.000   0.000  -0.051   0.000  -0.000   0.056   0.000   0.000   0.000   0.000   0.000   0.000   0.000   0.000   0.000
  0.000   0.000   0.000   0.000  -0.062   0.000   0.000   0.069   0.000   0.000   0.000   0.000   0.000   0.000   0.000   0.000
  0.000   0.000   0.029  -0.000   0.000  -0.031   0.000   0.000   0.000   0.000   0.000   0.000   0.000   0.000   0.000   0.000
  0.000   0.000  -0.000  -0.045   0.000  -0.000   0.050   0.000   0.000   0.000   0.000   0.000   0.000   0.000   0.000   0.000
  0.000   0.000   0.000   0.000   0.029   0.000   0.000  -0.031   0.000   0.000   0.000   0.000   0.000   0.000   0.000   0.000
  0.000   0.000  -0.062   0.000   0.000   0.069  -0.000   0.000   0.000   0.000   0.000   0.000   0.000   0.000   0.000   0.000
  0.000   0.000   0.000   0.000   0.000   0.000   0.000   0.000   0.000   0.000   0.000   0.000   0.000   0.000   0.000   0.000
  0.000   0.000  -0.000   0.053   0.000   0.000  -0.055   0.000   0.000   0.000   0.000   0.000   0.000   0.000   0.000   0.000
  0.000   0.000   0.000   0.000   0.065   0.000   0.000  -0.067   0.000   0.000   0.000   0.000   0.000   0.000   0.000   0.000
  0.000   0.000  -0.031   0.000   0.000   0.030  -0.000   0.000   0.000   0.000   0.000   0.000   0.000   0.000   0.000   0.000
  0.000   0.000  -0.000   0.046   0.000   0.000  -0.049   0.000   0.000   0.000   0.000   0.000   0.000   0.000   0.000   0.000
  0.000   0.000   0.000   0.000  -0.031   0.000   0.000   0.030   0.000   0.000   0.000   0.000   0.000   0.000   0.000   0.000
  0.000   0.000   0.065  -0.000   0.000  -0.067   0.000   0.000   0.000   0.000   0.000   0.000   0.000   0.000   0.000   0.000
  0.000   0.000   0.000   0.000  -0.000   0.000   0.000   0.000   0.000   0.000   0.000   0.000   0.000   0.000   0.000   0.000
 total augmentation occupancy for first ion, spin component:           2
  0.042   0.161   0.000   0.000   0.000   0.000   0.000   0.000   0.000  -0.000  -0.000   0.000  -0.000   0.000  -0.000  -0.000
  0.161  -0.130   0.000   0.000   0.000   0.000   0.000   0.000   0.000   0.000  -0.000   0.000  -0.000   0.000   0.000   0.000
  0.000   0.000   0.007  -0.000   0.000   0.044   0.000   0.000   0.000   0.000   0.000   0.000   0.000   0.000   0.000   0.000
  0.000   0.000  -0.000   0.007   0.000   0.000   0.044   0.000   0.000   0.000   0.000   0.000   0.000   0.000   0.000   0.000
  0.000   0.000   0.000   0.000   0.007   0.000   0.000   0.044   0.000   0.000   0.000   0.000   0.000   0.000   0.000   0.000
  0.000   0.000   0.044   0.000   0.000  -0.003   0.000   0.000   0.000   0.000   0.000   0.000   0.000   0.000   0.000   0.000
  0.000   0.000   0.000   0.044   0.000   0.000  -0.003   0.000   0.000   0.000   0.000   0.000   0.000   0.000   0.000   0.000
  0.000   0.000   0.000   0.000   0.044   0.000   0.000  -0.003   0.000   0.000   0.000   0.000   0.000   0.000   0.000   0.000
  0.000   0.000   0.000   0.000   0.000   0.000   0.000   0.000  -0.032   0.000   0.000   0.013   0.000  -0.008   0.000   0.000
 -0.000   0.000   0.000   0.000   0.000   0.000   0.000   0.000   0.000  -0.041  -0.000   0.000   0.013   0.000  -0.011  -0.000
 -0.000  -0.000   0.000   0.000   0.000   0.000   0.000   0.000   0.000  -0.000  -0.022   0.000  -0.000   0.000  -0.000  -0.005
  0.000   0.000   0.000   0.000   0.000   0.000   0.000   0.000   0.013   0.000   0.000  -0.041   0.000   0.004   0.000   0.000
 -0.000  -0.000   0.000   0.000   0.000   0.000   0.000   0.000   0.000   0.013  -0.000   0.000  -0.031   0.000   0.004  -0.000
  0.000   0.000   0.000   0.000   0.000   0.000   0.000   0.000  -0.008   0.000   0.000   0.004   0.000  -0.002   0.000   0.000
 -0.000   0.000   0.000   0.000   0.000   0.000   0.000   0.000   0.000  -0.011  -0.000   0.000   0.004   0.000  -0.003  -0.000
 -0.000   0.000   0.000   0.000   0.000   0.000   0.000   0.000   0.000  -0.000  -0.005   0.000  -0.000   0.000  -0.000  -0.001
  0.000   0.000   0.000   0.000   0.000   0.000   0.000   0.000   0.004   0.000   0.000  -0.011   0.000   0.001   0.000   0.000
 -0.000  -0.000   0.000   0.000   0.000   0.000   0.000   0.000   0.000   0.004  -0.000   0.000  -0.008   0.000   0.001  -0.000
  0.000   0.000   0.000   0.008   0.000  -0.000  -0.014   0.000   0.000   0.000   0.000   0.000   0.000   0.000   0.000   0.000
  0.000   0.000   0.000   0.000   0.008   0.000   0.000  -0.015   0.000   0.000   0.000   0.000   0.000   0.000   0.000   0.000
  0.000   0.000  -0.003   0.000   0.000   0.006  -0.000   0.000   0.000   0.000   0.000   0.000   0.000   0.000   0.000   0.000
  0.000   0.000   0.000   0.008   0.000  -0.000  -0.013   0.000   0.000   0.000   0.000   0.000   0.000   0.000   0.000   0.000
  0.000   0.000   0.000   0.000  -0.003   0.000   0.000   0.006   0.000   0.000   0.000   0.000   0.000   0.000   0.000   0.000
  0.000   0.000   0.008   0.000   0.000  -0.015  -0.000   0.000   0.000   0.000   0.000   0.000   0.000   0.000   0.000   0.000
  0.000   0.000   0.000   0.000   0.000   0.000   0.000  -0.000   0.000   0.000   0.000   0.000   0.000   0.000   0.000   0.000
  0.000   0.000  -0.000  -0.001   0.000   0.000   0.007   0.000   0.000   0.000   0.000   0.000   0.000   0.000   0.000   0.000
  0.000   0.000   0.000   0.000   0.000   0.000   0.000   0.007   0.000   0.000   0.000   0.000   0.000   0.000   0.000   0.000
  0.000   0.000  -0.001  -0.000   0.000  -0.002   0.000   0.000   0.000   0.000   0.000   0.000   0.000   0.000   0.000   0.000
  0.000   0.000  -0.000  -0.002   0.000   0.000   0.007   0.000   0.000   0.000   0.000   0.000   0.000   0.000   0.000   0.000
  0.000   0.000   0.000   0.000  -0.001   0.000   0.000  -0.002   0.000   0.000   0.000   0.000   0.000   0.000   0.000   0.000
  0.000   0.000   0.000  -0.000   0.000   0.007   0.000   0.000   0.000   0.000   0.000   0.000   0.000   0.000   0.000   0.000
  0.000   0.000   0.000   0.000  -0.000   0.000   0.000   0.000   0.000   0.000   0.000   0.000   0.000   0.000   0.000   0.000


------------------------ aborting loop because EDIFF is reached ----------------------------------------


 


 total charge     
 
# of ion       s       p       d       f       tot
--------------------------------------------------
    1        2.080   5.876   0.494   6.734  15.184
    2        2.080   5.876   0.494   6.733  15.183
    3        1.317   2.451   0.000   0.000   3.768
    4        1.317   2.451   0.000   0.000   3.768
--------------------------------------------------
tot          6.795  16.654   0.988  13.467  37.903

 


 magnetization (x)
 
# of ion       s       p       d       f       tot
--------------------------------------------------
    1        0.006   0.011  -0.087  -6.673  -6.744
    2       -0.006  -0.011   0.088   6.673   6.743
    3       -0.000   0.000   0.000   0.000   0.000
    4       -0.000   0.000   0.000   0.000   0.000
--------------------------------------------------
tot          0.000   0.000   0.000  -0.000  -0.000

 
    CHARGE:  cpu time    0.8570: real time    0.8590
    FORLOC:  cpu time    0.0025: real time    0.0025
    FORNL :  cpu time    3.8485: real time    3.8576
    STRESS:  cpu time   11.4206: real time   11.4476
    FORCOR:  cpu time    0.0622: real time    0.0623
    FORHAR:  cpu time    0.0077: real time    0.0077
    MIXING:  cpu time    0.0027: real time    0.0027
    OFIELD:  cpu time    0.0000: real time    0.0000

  FORCE on cell =-STRESS in cart. coord.  units (eV):
  Direction    XX          YY          ZZ          XY          YZ          ZX
  --------------------------------------------------------------------------------------
  Alpha Z   299.45687   299.45687   299.45687
  Ewald   -1406.08675 -1406.71051 -1405.96650    -0.00000    -0.43861     0.00000
  Hartree   512.30022   511.96822   512.09315     0.00000    -0.23702    -0.00000
  E(xc)    -226.36991  -226.37076  -226.36934     0.00000    -0.00066    -0.00000
  Local     250.15360   251.13386   250.11120     0.00001     0.68749     0.00000
  n-local   -30.63677   -30.64118   -30.61287     0.04863    -0.01062    -0.13503
  augment    49.75336    49.74492    49.76546     0.00001    -0.00658    -0.00000
  Kinetic   551.78524   551.75448   551.82277    -0.03769    -0.00428    -0.49735
  Fock        0.00000     0.00000     0.00000     0.00000     0.00000     0.00000
  -------------------------------------------------------------------------------------
  Total       0.35587     0.33591     0.30075     0.00000    -0.01028     0.00000
  in kB       5.71097     5.39063     4.82638     0.00000    -0.16500     0.00000
  external pressure =        5.31 kB  Pullay stress =        0.00 kB


 VOLUME and BASIS-vectors are now :
 -----------------------------------------------------------------------------
  energy-cutoff  :      520.00
  volume of cell :       99.84
      direct lattice vectors                 reciprocal lattice vectors
     2.063033096  3.574004597  0.000540801     0.000000000  0.279813092 -0.098513668
     0.000000000  2.383688809  6.770505561     0.000000000 -0.000022350  0.147707327
     4.126066192  0.000000000  0.000000000     0.242361599 -0.139906546  0.049256834

  length of vectors
     4.126695374  7.177863045  4.126066192     0.296648460  0.147707328  0.284146480


 FORCES acting on ions
    electron-ion (+dipol)            ewald-force                    non-local-force                 convergence-correction
 -----------------------------------------------------------------------------------------------
   0.531E-12 0.252E-12 0.766E-12   0.277E-13 0.154E-13 0.114E-12   -.106E-21 0.000E+00 0.000E+00   0.588E-13 0.262E-13 0.402E-13
   0.259E-12 -.166E-13 -.166E-13   0.364E-13 -.333E-15 -.568E-13   0.000E+00 0.529E-22 0.000E+00   0.928E-13 -.153E-13 -.395E-13
   -.449E-09 -.774E-04 -.381E-01   -.309E-13 0.972E-04 0.418E-01   0.000E+00 -.130E-05 0.199E-02   0.817E-10 -.793E-05 -.423E-02
   0.435E-09 0.774E-04 0.381E-01   -.342E-13 -.972E-04 -.418E-01   0.000E+00 0.130E-05 -.199E-02   -.817E-10 0.793E-05 0.423E-02
 -----------------------------------------------------------------------------------------------
   -.135E-10 0.912E-12 0.503E-12   -.999E-15 0.136E-13 0.000E+00   -.106E-21 0.000E+00 0.000E+00   0.145E-12 -.245E-13 0.472E-14
 
 
 POSITION                                       TOTAL-FORCE (eV/Angst)
 -----------------------------------------------------------------------------------
      2.06303      1.19184      3.38525         0.000000      0.000000      0.000000
      0.00000      0.00000      0.00000         0.000000      0.000000      0.000000
      4.12607      2.38292      1.69273         0.000000      0.000011      0.001458
      2.06303      3.57477      5.07832         0.000000     -0.000011     -0.001458
 -----------------------------------------------------------------------------------
    total drift:                               -0.000000      0.000000      0.000000


--------------------------------------------------------------------------------------------------------



  FREE ENERGIE OF THE ION-ELECTRON SYSTEM (eV)
  ---------------------------------------------------
  free  energy   TOTEN  =       -37.45765441 eV

  energy  without entropy=      -37.45765441  energy(sigma->0) =      -37.45765441
 


--------------------------------------------------------------------------------------------------------


    POTLOK:  cpu time    1.2706: real time    1.2736


--------------------------------------------------------------------------------------------------------


     LOOP+:  cpu time  432.9738: real time  434.0825
    4ORBIT:  cpu time    0.0000: real time    0.0000
 


 total charge     
 
# of ion       s       p       d       f       tot
--------------------------------------------------
    1        2.080   5.876   0.494   6.734  15.184
    2        2.080   5.876   0.494   6.733  15.183
    3        1.317   2.451   0.000   0.000   3.768
    4        1.317   2.451   0.000   0.000   3.768
--------------------------------------------------
tot          6.795  16.654   0.988  13.467  37.903

 


 magnetization (x)
 
# of ion       s       p       d       f       tot
--------------------------------------------------
    1        0.006   0.011  -0.087  -6.673  -6.744
    2       -0.006  -0.011   0.088   6.673   6.743
    3       -0.000   0.000   0.000   0.000   0.000
    4       -0.000   0.000   0.000   0.000   0.000
--------------------------------------------------
tot          0.000   0.000   0.000  -0.000  -0.000

 
 BZINTS: Fermi energy:  4.540722; 46.000000 electrons
         Band energy:-274.363046;  BLOECHL correction: -0.001831

 total amount of memory used by VASP MPI-rank0    96184. kBytes
=======================================================================

   base      :      30000. kBytes
   nonlr-proj:       2321. kBytes
   fftplans  :       2319. kBytes
   grid      :       5658. kBytes
   one-center:         98. kBytes
   wavefun   :      55788. kBytes
 
  
  
 General timing and accounting informations for this job:
 ========================================================
  
                  Total CPU time used (sec):      440.476
                            User time (sec):      437.895
                          System time (sec):        2.581
                         Elapsed time (sec):      442.075
  
                   Maximum memory used (kb):      136896.
                   Average memory used (kb):           0.
  
                          Minor page faults:        63149
                          Major page faults:            0
                 Voluntary context switches:          202
