=========================================
SLURM_JOB_ID = 51754178
SLURM_JOB_NODELIST = lnode59
SLURM_GPUS = 
SLURM_CPUS_ON_NODE = 24
SLURM_JOB_PARTITION = lenovo
SLURM_TASK_PID = 1115496
CUDA_VISIBLE_DEVICES = 
==========================================
 running on   24 total cores
 distrk:  each k-point on   24 cores,    1 groups
 distr:  one band on    4 cores,    6 groups
 using from now: INCAR     
 vasp.5.4.4.18Apr17-6-g9f103f2a35 (build Apr 28 2018 00:24:27) complex          
  
 POSCAR found type information on POSCAR  Fe
 POSCAR found :  1 types and       2 ions
 scaLAPACK will be used

 ----------------------------------------------------------------------------- 
|                                                                             |
|  ADVICE TO THIS USER RUNNING 'VASP/VAMP'   (HEAR YOUR MASTER'S VOICE ...):  |
|                                                                             |
|      You have a (more or less) 'small supercell' and for smaller cells      |
|      it is recommended  to use the reciprocal-space projection scheme!      |
|      The real space optimization is not  efficient for small cells and it   |
|      is also less accurate ...                                              |
|      Therefore set LREAL=.FALSE. in the  INCAR file                         |
|                                                                             |
 ----------------------------------------------------------------------------- 

 LDA part: xc-table for Pade appr. of Perdew
 POSCAR, INCAR and KPOINTS ok, starting setup
 FFT: planning ...
 WAVECAR not read
 entering main loop
       N       E                     dE             d eps       ncg     rms          rms(c)
DAV:   1     0.259817489596E+03    0.25982E+03   -0.23465E+04  3432   0.257E+03
DAV:   2    -0.858753054158E+01   -0.26841E+03   -0.25745E+03  3468   0.476E+02
DAV:   3    -0.162063821497E+02   -0.76189E+01   -0.75966E+01  3588   0.865E+01
DAV:   4    -0.162731730091E+02   -0.66791E-01   -0.66791E-01  4008   0.775E+00
DAV:   5    -0.162744318395E+02   -0.12588E-02   -0.12589E-02  3636   0.996E-01    0.250E+01
DAV:   6    -0.164589195937E+02   -0.18449E+00   -0.74918E+00  3420   0.398E+01    0.691E+00
DAV:   7    -0.165135030849E+02   -0.54583E-01   -0.61500E-01  3408   0.981E+00    0.431E+00
DAV:   8    -0.165232349685E+02   -0.97319E-02   -0.15168E-02  3732   0.149E+00    0.137E+00
DAV:   9    -0.165149615851E+02    0.82734E-02   -0.52771E-03  3648   0.892E-01    0.337E-01
DAV:  10    -0.165147631469E+02    0.19844E-03   -0.22422E-03  3432   0.616E-01    0.442E-02
DAV:  11    -0.165148232100E+02   -0.60063E-04   -0.50129E-05  3612   0.675E-02    0.242E-02
DAV:  12    -0.165148314208E+02   -0.82108E-05   -0.50797E-06  3852   0.231E-02    0.958E-03
DAV:  13    -0.165148246683E+02    0.67524E-05   -0.12938E-06  3540   0.113E-02    0.251E-03
DAV:  14    -0.165148230910E+02    0.15774E-05   -0.15726E-07  2676   0.333E-03    0.658E-04
DAV:  15    -0.165148231045E+02   -0.13541E-07   -0.11282E-08  1740   0.111E-03
   1 F= -.16514823E+02 E0= -.16514823E+02  d E =0.000000E+00  mag=     4.4054
