 vasp.5.4.4.18Apr17-6-g9f103f2a35 (build Apr 28 2018 00:24:27) complex          
  
 executed on             LinuxIFC date 2021.09.07  01:11:22
 running on   24 total cores
 distrk:  each k-point on   24 cores,    1 groups
 distr:  one band on NCORES_PER_BAND=   4 cores,    6 groups


--------------------------------------------------------------------------------------------------------


 INCAR:
 POTCAR:    PAW_PBE Fe_pv 02Aug2007               
 POTCAR:    PAW_PBE Fe_pv 02Aug2007               
   VRHFIN =Fe:  3pd7s1                                                          
   LEXCH  = PE                                                                  
   EATOM  =  2457.4239 eV,  180.6156 Ry                                         
                                                                                
   TITEL  = PAW_PBE Fe_pv 02Aug2007                                             
   LULTRA =        F    use ultrasoft PP ?                                      
   IUNSCR =        1    unscreen: 0-lin 1-nonlin 2-no                           
   RPACOR =    1.750    partial core radius                                     
   POMASS =   55.847; ZVAL   =   14.000    mass and valenz                      
   RCORE  =    2.200    outmost cutoff radius                                   
   RWIGS  =    2.200; RWIGS  =    1.164    wigner-seitz radius (au A)           
   ENMAX  =  293.238; ENMIN  =  219.928 eV                                      
   ICORE  =        3    local potential                                         
   LCOR   =        T    correct aug charges                                     
   LPAW   =        T    paw PP                                                  
   EAUG   =  578.342                                                            
   DEXC   =    0.000                                                            
   RMAX   =    2.249    core radius for proj-oper                               
   RAUG   =    1.300    factor for augmentation sphere                          
   RDEP   =    2.296    radius for radial grids                                 
   RDEPT  =    1.766    core radius for aug-charge                              
                                                                                
   Atomic configuration                                                         
    8 entries                                                                   
     n  l   j            E        occ.                                          
     1  0  0.50     -6993.8440   2.0000                                         
     2  0  0.50      -814.6047   2.0000                                         
     2  1  1.50      -693.3689   6.0000                                         
     3  0  0.50       -89.4732   2.0000                                         
     3  1  1.50       -55.6373   6.0000                                         
     3  2  2.50        -3.8151   7.0000                                         
     4  0  0.50        -4.2551   1.0000                                         
     4  3  2.50        -1.3606   0.0000                                         
   Description                                                                  
     l       E           TYP  RCUT    TYP  RCUT                                 
     1    -55.6372668     23  2.000                                             
     1     -5.4423304     23  2.000                                             
     2     -3.8151096     23  2.200                                             
     2     -5.1756922     23  2.200                                             
     0     -4.2550951     23  2.200                                             
     0     27.2116520     23  2.200                                             
     3     -1.3605826     23  2.200                                             
  local pseudopotential read in
  partial core-charges read in
  partial kinetic energy density read in
  atomic valenz-charges read in
  non local Contribution for L=           1  read in
    real space projection operators read in
  non local Contribution for L=           1  read in
    real space projection operators read in
  non local Contribution for L=           2  read in
    real space projection operators read in
  non local Contribution for L=           2  read in
    real space projection operators read in
  non local Contribution for L=           0  read in
    real space projection operators read in
  non local Contribution for L=           0  read in
    real space projection operators read in
    PAW grid and wavefunctions read in
 
   number of l-projection  operators is LMAX  =           6
   number of lm-projection operators is LMMAX =          18
 

 ----------------------------------------------------------------------------- 
|                                                                             |
|  ADVICE TO THIS USER RUNNING 'VASP/VAMP'   (HEAR YOUR MASTER'S VOICE ...):  |
|                                                                             |
|      You have a (more or less) 'small supercell' and for smaller cells      |
|      it is recommended  to use the reciprocal-space projection scheme!      |
|      The real space optimization is not  efficient for small cells and it   |
|      is also less accurate ...                                              |
|      Therefore set LREAL=.FALSE. in the  INCAR file                         |
|                                                                             |
 ----------------------------------------------------------------------------- 

 Optimization of the real space projectors (new method)

 maximal supplied QI-value         = 17.01
 optimisation between [QCUT,QGAM] = [ 10.20, 20.41] = [ 29.16,116.64] Ry 
 Optimized for a Real-space Cutoff    1.46 Angstroem

   l    n(q)    QCUT    max X(q) W(low)/X(q) W(high)/X(q)  e(spline) 
   1      8    10.205     4.267    0.60E-04    0.25E-03    0.13E-06
   1      8    10.205     5.750    0.10E-03    0.39E-03    0.20E-06
   2      8    10.205    53.656    0.21E-03    0.27E-03    0.17E-06
   2      8    10.205    49.521    0.22E-03    0.28E-03    0.17E-06
   0      9    10.205    31.246    0.10E-03    0.83E-04    0.75E-07
   0      9    10.205    12.201    0.82E-04    0.70E-04    0.63E-07
  PAW_PBE Fe_pv 02Aug2007               :
 energy of atom  1       EATOM=-2457.4239
 kinetic energy error for atom=    0.0364 (will be added to EATOM!!)
 
 
 POSCAR: Fe2                                     
  positions in direct lattice
  No initial velocities read in
 exchange correlation table for  LEXCH =        8
   RHO(1)=    0.500       N(1)  =     2000
   RHO(2)=  100.500       N(2)  =     4000
 


--------------------------------------------------------------------------------------------------------


 ion  position               nearest neighbor table
   1  0.000  0.000  0.000-   2 2.46   2 2.46   2 2.46   2 2.46   2 2.46   2 2.46   2 2.46   2 2.46

   2  0.500  0.500  0.500-   1 2.46   1 2.46   1 2.46   1 2.46   1 2.46   1 2.46   1 2.46   1 2.46

 
  LATTYP: Found a simple cubic cell.
 ALAT       =     2.8400520000
  
  Lattice vectors:
  
 A1 = (   2.8400520000,   0.0000000000,   0.0000000000)
 A2 = (   0.0000000000,   2.8400520000,   0.0000000000)
 A3 = (   0.0000000000,   0.0000000000,   2.8400520000)


Analysis of symmetry for initial positions (statically):
=====================================================================
 Subroutine PRICEL returns following result:
 
  LATTYP: Found a body centered cubic cell.
 ALAT       =     2.8400520000
  
  Lattice vectors:
  
 A1 = (   1.4200260000,   1.4200260000,   1.4200260000)
 A2 = (   1.4200260000,  -1.4200260000,  -1.4200260000)
 A3 = (  -1.4200260000,   1.4200260000,  -1.4200260000)
 
   2 primitive cells build up your supercell.
 

 Routine SETGRP: Setting up the symmetry group for a 
 simple cubic supercell.


 Subroutine GETGRP returns: Found 48 space group operations
 (whereof 48 operations were pure point group operations)
 out of a pool of 48 trial point group operations.


The static configuration has the point symmetry O_h .


Analysis of symmetry for dynamics (positions and initial velocities):
=====================================================================
 Subroutine PRICEL returns following result:
 
  LATTYP: Found a body centered cubic cell.
 ALAT       =     2.8400520000
  
  Lattice vectors:
  
 A1 = (   1.4200260000,   1.4200260000,   1.4200260000)
 A2 = (   1.4200260000,  -1.4200260000,  -1.4200260000)
 A3 = (  -1.4200260000,   1.4200260000,  -1.4200260000)
 
   2 primitive cells build up your supercell.
 

 Routine SETGRP: Setting up the symmetry group for a 
 simple cubic supercell.


 Subroutine GETGRP returns: Found 48 space group operations
 (whereof 48 operations were pure point group operations)
 out of a pool of 48 trial point group operations.


The dynamic configuration has the point symmetry O_h .


Analysis of structural, dynamic, and magnetic symmetry:
=====================================================================
 Subroutine PRICEL returns following result:
 
  LATTYP: Found a body centered cubic cell.
 ALAT       =     2.8400520000
  
  Lattice vectors:
  
 A1 = (   1.4200260000,   1.4200260000,   1.4200260000)
 A2 = (   1.4200260000,  -1.4200260000,  -1.4200260000)
 A3 = (  -1.4200260000,   1.4200260000,  -1.4200260000)
 
   2 primitive cells build up your supercell.
 

 Routine SETGRP: Setting up the symmetry group for a 
 simple cubic supercell.


 Subroutine GETGRP returns: Found 48 space group operations
 (whereof 48 operations were pure point group operations)
 out of a pool of 48 trial point group operations.


The magnetic configuration has the point symmetry O_h .


 Subroutine INISYM returns: Found 48 space group operations
 (whereof 48 operations are pure point group operations),
 and found     2 'primitive' translations

 
 
 KPOINTS: pymatgen with grid density = 2166 / numb

Automatic generation of k-mesh.
Space group operators:
 irot       det(A)        alpha          n_x          n_y          n_z        tau_x        tau_y        tau_z
    1     1.000000     0.000000     1.000000     0.000000     0.000000     0.000000     0.000000     0.000000
    2    -1.000000     0.000000     1.000000     0.000000     0.000000     0.000000     0.000000     0.000000
    3     1.000000   120.000000    -0.577350    -0.577350    -0.577350     0.000000     0.000000     0.000000
    4    -1.000000   120.000000    -0.577350    -0.577350    -0.577350     0.000000     0.000000     0.000000
    5     1.000000   120.000000     0.577350     0.577350     0.577350     0.000000     0.000000     0.000000
    6    -1.000000   120.000000     0.577350     0.577350     0.577350     0.000000     0.000000     0.000000
    7     1.000000    90.000000     0.000000     0.000000    -1.000000     0.000000     0.000000     0.000000
    8    -1.000000    90.000000     0.000000     0.000000    -1.000000     0.000000     0.000000     0.000000
    9     1.000000   180.000000     0.000000     0.707107     0.707107     0.000000     0.000000     0.000000
   10    -1.000000   180.000000     0.000000     0.707107     0.707107     0.000000     0.000000     0.000000
   11     1.000000    90.000000     0.000000     1.000000     0.000000     0.000000     0.000000     0.000000
   12    -1.000000    90.000000     0.000000     1.000000     0.000000     0.000000     0.000000     0.000000
   13     1.000000   180.000000     0.000000     0.000000     1.000000     0.000000     0.000000     0.000000
   14    -1.000000   180.000000     0.000000     0.000000     1.000000     0.000000     0.000000     0.000000
   15     1.000000   120.000000    -0.577350     0.577350     0.577350     0.000000     0.000000     0.000000
   16    -1.000000   120.000000    -0.577350     0.577350     0.577350     0.000000     0.000000     0.000000
   17     1.000000   120.000000    -0.577350     0.577350    -0.577350     0.000000     0.000000     0.000000
   18    -1.000000   120.000000    -0.577350     0.577350    -0.577350     0.000000     0.000000     0.000000
   19     1.000000    90.000000     0.000000     0.000000     1.000000     0.000000     0.000000     0.000000
   20    -1.000000    90.000000     0.000000     0.000000     1.000000     0.000000     0.000000     0.000000
   21     1.000000    90.000000    -1.000000     0.000000     0.000000     0.000000     0.000000     0.000000
   22    -1.000000    90.000000    -1.000000     0.000000     0.000000     0.000000     0.000000     0.000000
   23     1.000000   180.000000     0.707107     0.000000     0.707107     0.000000     0.000000     0.000000
   24    -1.000000   180.000000     0.707107     0.000000     0.707107     0.000000     0.000000     0.000000
   25     1.000000   120.000000     0.577350    -0.577350     0.577350     0.000000     0.000000     0.000000
   26    -1.000000   120.000000     0.577350    -0.577350     0.577350     0.000000     0.000000     0.000000
   27     1.000000   120.000000    -0.577350    -0.577350     0.577350     0.000000     0.000000     0.000000
   28    -1.000000   120.000000    -0.577350    -0.577350     0.577350     0.000000     0.000000     0.000000
   29     1.000000   180.000000     1.000000     0.000000     0.000000     0.000000     0.000000     0.000000
   30    -1.000000   180.000000     1.000000     0.000000     0.000000     0.000000     0.000000     0.000000
   31     1.000000    90.000000     0.000000    -1.000000     0.000000     0.000000     0.000000     0.000000
   32    -1.000000    90.000000     0.000000    -1.000000     0.000000     0.000000     0.000000     0.000000
   33     1.000000   180.000000     0.707107     0.707107     0.000000     0.000000     0.000000     0.000000
   34    -1.000000   180.000000     0.707107     0.707107     0.000000     0.000000     0.000000     0.000000
   35     1.000000    90.000000     1.000000     0.000000     0.000000     0.000000     0.000000     0.000000
   36    -1.000000    90.000000     1.000000     0.000000     0.000000     0.000000     0.000000     0.000000
   37     1.000000   120.000000     0.577350    -0.577350    -0.577350     0.000000     0.000000     0.000000
   38    -1.000000   120.000000     0.577350    -0.577350    -0.577350     0.000000     0.000000     0.000000
   39     1.000000   180.000000     0.000000     1.000000     0.000000     0.000000     0.000000     0.000000
   40    -1.000000   180.000000     0.000000     1.000000     0.000000     0.000000     0.000000     0.000000
   41     1.000000   120.000000     0.577350     0.577350    -0.577350     0.000000     0.000000     0.000000
   42    -1.000000   120.000000     0.577350     0.577350    -0.577350     0.000000     0.000000     0.000000
   43     1.000000   180.000000     0.000000    -0.707107     0.707107     0.000000     0.000000     0.000000
   44    -1.000000   180.000000     0.000000    -0.707107     0.707107     0.000000     0.000000     0.000000
   45     1.000000   180.000000     0.707107    -0.707107     0.000000     0.000000     0.000000     0.000000
   46    -1.000000   180.000000     0.707107    -0.707107     0.000000     0.000000     0.000000     0.000000
   47     1.000000   180.000000     0.707107     0.000000    -0.707107     0.000000     0.000000     0.000000
   48    -1.000000   180.000000     0.707107     0.000000    -0.707107     0.000000     0.000000     0.000000
 
 Subroutine IBZKPT returns following result:
 ===========================================
 
 Found     35 irreducible k-points:
 
 Following reciprocal coordinates:
            Coordinates               Weight
  0.050000  0.050000  0.050000      8.000000
  0.150000  0.050000  0.050000     24.000000
  0.250000  0.050000  0.050000     24.000000
  0.350000  0.050000  0.050000     24.000000
  0.450000  0.050000  0.050000     24.000000
  0.150000  0.150000  0.050000     24.000000
  0.250000  0.150000  0.050000     48.000000
  0.350000  0.150000  0.050000     48.000000
  0.450000  0.150000  0.050000     48.000000
  0.250000  0.250000  0.050000     24.000000
  0.350000  0.250000  0.050000     48.000000
  0.450000  0.250000  0.050000     48.000000
  0.350000  0.350000  0.050000     24.000000
  0.450000  0.350000  0.050000     48.000000
  0.450000  0.450000  0.050000     24.000000
  0.150000  0.150000  0.150000      8.000000
  0.250000  0.150000  0.150000     24.000000
  0.350000  0.150000  0.150000     24.000000
  0.450000  0.150000  0.150000     24.000000
  0.250000  0.250000  0.150000     24.000000
  0.350000  0.250000  0.150000     48.000000
  0.450000  0.250000  0.150000     48.000000
  0.350000  0.350000  0.150000     24.000000
  0.450000  0.350000  0.150000     48.000000
  0.450000  0.450000  0.150000     24.000000
  0.250000  0.250000  0.250000      8.000000
  0.350000  0.250000  0.250000     24.000000
  0.450000  0.250000  0.250000     24.000000
  0.350000  0.350000  0.250000     24.000000
  0.450000  0.350000  0.250000     48.000000
  0.450000  0.450000  0.250000     24.000000
  0.350000  0.350000  0.350000      8.000000
  0.450000  0.350000  0.350000     24.000000
  0.450000  0.450000  0.350000     24.000000
  0.450000  0.450000  0.450000      8.000000
 
 Following cartesian coordinates:
            Coordinates               Weight
  0.017605  0.017605  0.017605      8.000000
  0.052816  0.017605  0.017605     24.000000
  0.088027  0.017605  0.017605     24.000000
  0.123237  0.017605  0.017605     24.000000
  0.158448  0.017605  0.017605     24.000000
  0.052816  0.052816  0.017605     24.000000
  0.088027  0.052816  0.017605     48.000000
  0.123237  0.052816  0.017605     48.000000
  0.158448  0.052816  0.017605     48.000000
  0.088027  0.088027  0.017605     24.000000
  0.123237  0.088027  0.017605     48.000000
  0.158448  0.088027  0.017605     48.000000
  0.123237  0.123237  0.017605     24.000000
  0.158448  0.123237  0.017605     48.000000
  0.158448  0.158448  0.017605     24.000000
  0.052816  0.052816  0.052816      8.000000
  0.088027  0.052816  0.052816     24.000000
  0.123237  0.052816  0.052816     24.000000
  0.158448  0.052816  0.052816     24.000000
  0.088027  0.088027  0.052816     24.000000
  0.123237  0.088027  0.052816     48.000000
  0.158448  0.088027  0.052816     48.000000
  0.123237  0.123237  0.052816     24.000000
  0.158448  0.123237  0.052816     48.000000
  0.158448  0.158448  0.052816     24.000000
  0.088027  0.088027  0.088027      8.000000
  0.123237  0.088027  0.088027     24.000000
  0.158448  0.088027  0.088027     24.000000
  0.123237  0.123237  0.088027     24.000000
  0.158448  0.123237  0.088027     48.000000
  0.158448  0.158448  0.088027     24.000000
  0.123237  0.123237  0.123237      8.000000
  0.158448  0.123237  0.123237     24.000000
  0.158448  0.158448  0.123237     24.000000
  0.158448  0.158448  0.158448      8.000000
 
 TETIRR: Found    466 inequivalent tetrahedra from     6000


--------------------------------------------------------------------------------------------------------




 Dimension of arrays:
   k-points           NKPTS =     35   k-points in BZ     NKDIM =     35   number of bands    NBANDS=     24
   number of dos      NEDOS =    301   number of ions     NIONS =      2
   non local maximal  LDIM  =      6   non local SUM 2l+1 LMDIM =     18
   total plane-waves  NPLWV =   8000
   max r-space proj   IRMAX =   4645   max aug-charges    IRDMAX=  10541
   dimension x,y,z NGX =    20 NGY =   20 NGZ =   20
   dimension x,y,z NGXF=    40 NGYF=   40 NGZF=   40
   support grid    NGXF=    40 NGYF=   40 NGZF=   40
   ions per type =               2
   NGX,Y,Z   is equivalent  to a cutoff of  11.71, 11.71, 11.71 a.u.
   NGXF,Y,Z  is equivalent  to a cutoff of  23.41, 23.41, 23.41 a.u.

 SYSTEM =  unknown system                          
 POSCAR =  Fe2                                     

 Startparameter for this run:
   NWRITE =      2    write-flag & timer
   PREC   = accura    normal or accurate (medium, high low for compatibility)
   ISTART =      0    job   : 0-new  1-cont  2-samecut
   ICHARG =      2    charge: 1-file 2-atom 10-const
   ISPIN  =      2    spin polarized calculation?
   LNONCOLLINEAR =      F non collinear calculations
   LSORBIT =      F    spin-orbit coupling
   INIWAV =      1    electr: 0-lowe 1-rand  2-diag
   LASPH  =      F    aspherical Exc in radial PAW
   METAGGA=      F    non-selfconsistent MetaGGA calc.

 Electronic Relaxation 1
   ENCUT  =  400.0 eV  29.40 Ry    5.42 a.u.   4.63  4.63  4.63*2*pi/ulx,y,z
   ENINI  =  400.0     initial cutoff
   ENAUG  =  578.3 eV  augmentation charge cutoff
   NELM   =    100;   NELMIN=  2; NELMDL= -5     # of ELM steps 
   EDIFF  = 0.1E-06   stopping-criterion for ELM
   LREAL  =      T    real-space projection
   NLSPLINE    = F    spline interpolate recip. space projectors
   LCOMPAT=      F    compatible to vasp.4.4
   GGA_COMPAT  = T    GGA compatible to vasp.4.4-vasp.4.6
   LMAXPAW     = -100 max onsite density
   LMAXMIX     =    2 max onsite mixed and CHGCAR
   VOSKOWN=      0    Vosko Wilk Nusair interpolation
   ROPT   =   -0.00025
 Ionic relaxation
   EDIFFG = 0.1E-05   stopping-criterion for IOM
   NSW    =      0    number of steps for IOM
   NBLOCK =      1;   KBLOCK =      1    inner block; outer block 
   IBRION =     -1    ionic relax: 0-MD 1-quasi-New 2-CG
   NFREE  =      0    steps in history (QN), initial steepest desc. (CG)
   ISIF   =      3    stress and relaxation
   IWAVPR =     10    prediction:  0-non 1-charg 2-wave 3-comb
   ISYM   =      2    0-nonsym 1-usesym 2-fastsym
   LCORR  =      T    Harris-Foulkes like correction to forces

   POTIM  = 0.5000    time-step for ionic-motion
   TEIN   =    0.0    initial temperature
   TEBEG  =    0.0;   TEEND  =   0.0 temperature during run
   SMASS  =  -3.00    Nose mass-parameter (am)
   estimated Nose-frequenzy (Omega)   =  0.10E-29 period in steps =****** mass=  -0.184E-27a.u.
   SCALEE = 1.0000    scale energy and forces
   NPACO  =    256;   APACO  = 16.0  distance and # of slots for P.C.
   PSTRESS=    0.0 pullay stress

  Mass of Ions in am
   POMASS =  55.85
  Ionic Valenz
   ZVAL   =  14.00
  Atomic Wigner-Seitz radii
   RWIGS  =  -1.00
  virtual crystal weights 
   VCA    =   1.00
   NELECT =      28.0000    total number of electrons
   NUPDOWN=      -1.0000    fix difference up-down

 DOS related values:
   EMIN   =  10.00;   EMAX   =-10.00  energy-range for DOS
   EFERMI =   0.00
   ISMEAR =    -5;   SIGMA  =   0.05  broadening in eV -4-tet -1-fermi 0-gaus

 Electronic relaxation 2 (details)
   IALGO  =     38    algorithm
   LDIAG  =      T    sub-space diagonalisation (order eigenvalues)
   LSUBROT=      F    optimize rotation matrix (better conditioning)
   TURBO    =      0    0=normal 1=particle mesh
   IRESTART =      0    0=no restart 2=restart with 2 vectors
   NREBOOT  =      0    no. of reboots
   NMIN     =      0    reboot dimension
   EREF     =   0.00    reference energy to select bands
   IMIX   =      4    mixing-type and parameters
     AMIX     =   0.40;   BMIX     =  1.00
     AMIX_MAG =   1.60;   BMIX_MAG =  1.00
     AMIN     =   0.10
     WC   =   100.;   INIMIX=   1;  MIXPRE=   1;  MAXMIX= -45

 Intra band minimization:
   WEIMIN = 0.0000     energy-eigenvalue tresh-hold
   EBREAK =  0.10E-08  absolut break condition
   DEPER  =   0.30     relativ break condition  

   TIME   =   0.40     timestep for ELM

  volume/ion in A,a.u.               =      11.45        77.29
  Fermi-wavevector in a.u.,A,eV,Ry     =   1.750389  3.307755 41.686364  3.063861
  Thomas-Fermi vector in A             =   2.821117
 
 Write flags
   LWAVE        =      F    write WAVECAR
   LDOWNSAMPLE  =      F    k-point downsampling of WAVECAR
   LCHARG       =      F    write CHGCAR
   LVTOT        =      F    write LOCPOT, total local potential
   LVHAR        =      F    write LOCPOT, Hartree potential only
   LELF         =      F    write electronic localiz. function (ELF)
   LORBIT       =     11    0 simple, 1 ext, 2 COOP (PROOUT), +10 PAW based schemes


 Dipole corrections
   LMONO  =      F    monopole corrections only (constant potential shift)
   LDIPOL =      F    correct potential (dipole corrections)
   IDIPOL =      0    1-x, 2-y, 3-z, 4-all directions 
   EPSILON=  1.0000000 bulk dielectric constant

 Exchange correlation treatment:
   GGA     =    --    GGA type
   LEXCH   =     8    internal setting for exchange type
   VOSKOWN=      0    Vosko Wilk Nusair interpolation
   LHFCALC =     F    Hartree Fock is set to
   LHFONE  =     F    Hartree Fock one center treatment
   AEXX    =    0.0000 exact exchange contribution

 Linear response parameters
   LEPSILON=     F    determine dielectric tensor
   LRPA    =     F    only Hartree local field effects (RPA)
   LNABLA  =     F    use nabla operator in PAW spheres
   LVEL    =     F    velocity operator in full k-point grid
   LINTERFAST=   F  fast interpolation
   KINTER  =     0    interpolate to denser k-point grid
   CSHIFT  =0.1000    complex shift for real part using Kramers Kronig
   OMEGAMAX=  -1.0    maximum frequency
   DEG_THRESHOLD= 0.2000000E-02 threshold for treating states as degnerate
   RTIME   =   -0.100 relaxation time in fs
  (WPLASMAI=    0.000 imaginary part of plasma frequency in eV, 0.658/RTIME)
   DFIELD  = 0.0000000 0.0000000 0.0000000 field for delta impulse in time
 
 Orbital magnetization related:
   ORBITALMAG=     F  switch on orbital magnetization
   LCHIMAG   =     F  perturbation theory with respect to B field
   DQ        =  0.001000  dq finite difference perturbation B field
   LLRAUG    =     F  two centre corrections for induced B field



--------------------------------------------------------------------------------------------------------


 Static calculation
 charge density and potential will be updated during run
 spin polarized calculation
 Variant of blocked Davidson
 Davidson routine will perform the subspace rotation
 perform sub-space diagonalisation
    after iterative eigenvector-optimisation
 modified Broyden-mixing scheme, WC =      100.0
 initial mixing is a Kerker type mixing with AMIX =  0.4000 and BMIX =      1.0000
 Hartree-type preconditioning will be used
 using additional bands           10
 real space projection scheme for non local part
 use partial core corrections
 calculate Harris-corrections to forces 
   (improved forces if not selfconsistent)
 use gradient corrections 
 use of overlap-Matrix (Vanderbilt PP)
 Fermi weights with tetrahedron method with Bloechl corrections


--------------------------------------------------------------------------------------------------------


  energy-cutoff  :      400.00
  volume of cell :       22.91
      direct lattice vectors                 reciprocal lattice vectors
     2.840052000  0.000000000  0.000000000     0.352106229  0.000000000  0.000000000
     0.000000000  2.840052000  0.000000000     0.000000000  0.352106229  0.000000000
     0.000000000  0.000000000  2.840052000     0.000000000  0.000000000  0.352106229

  length of vectors
     2.840052000  2.840052000  2.840052000     0.352106229  0.352106229  0.352106229


 
 k-points in units of 2pi/SCALE and weight: pymatgen with grid density = 2166 / numb
   0.01760531  0.01760531  0.01760531       0.008
   0.05281593  0.01760531  0.01760531       0.024
   0.08802656  0.01760531  0.01760531       0.024
   0.12323718  0.01760531  0.01760531       0.024
   0.15844780  0.01760531  0.01760531       0.024
   0.05281593  0.05281593  0.01760531       0.024
   0.08802656  0.05281593  0.01760531       0.048
   0.12323718  0.05281593  0.01760531       0.048
   0.15844780  0.05281593  0.01760531       0.048
   0.08802656  0.08802656  0.01760531       0.024
   0.12323718  0.08802656  0.01760531       0.048
   0.15844780  0.08802656  0.01760531       0.048
   0.12323718  0.12323718  0.01760531       0.024
   0.15844780  0.12323718  0.01760531       0.048
   0.15844780  0.15844780  0.01760531       0.024
   0.05281593  0.05281593  0.05281593       0.008
   0.08802656  0.05281593  0.05281593       0.024
   0.12323718  0.05281593  0.05281593       0.024
   0.15844780  0.05281593  0.05281593       0.024
   0.08802656  0.08802656  0.05281593       0.024
   0.12323718  0.08802656  0.05281593       0.048
   0.15844780  0.08802656  0.05281593       0.048
   0.12323718  0.12323718  0.05281593       0.024
   0.15844780  0.12323718  0.05281593       0.048
   0.15844780  0.15844780  0.05281593       0.024
   0.08802656  0.08802656  0.08802656       0.008
   0.12323718  0.08802656  0.08802656       0.024
   0.15844780  0.08802656  0.08802656       0.024
   0.12323718  0.12323718  0.08802656       0.024
   0.15844780  0.12323718  0.08802656       0.048
   0.15844780  0.15844780  0.08802656       0.024
   0.12323718  0.12323718  0.12323718       0.008
   0.15844780  0.12323718  0.12323718       0.024
   0.15844780  0.15844780  0.12323718       0.024
   0.15844780  0.15844780  0.15844780       0.008
 
 k-points in reciprocal lattice and weights: pymatgen with grid density = 2166 / numb
   0.05000000  0.05000000  0.05000000       0.008
   0.15000000  0.05000000  0.05000000       0.024
   0.25000000  0.05000000  0.05000000       0.024
   0.35000000  0.05000000  0.05000000       0.024
   0.45000000  0.05000000  0.05000000       0.024
   0.15000000  0.15000000  0.05000000       0.024
   0.25000000  0.15000000  0.05000000       0.048
   0.35000000  0.15000000  0.05000000       0.048
   0.45000000  0.15000000  0.05000000       0.048
   0.25000000  0.25000000  0.05000000       0.024
   0.35000000  0.25000000  0.05000000       0.048
   0.45000000  0.25000000  0.05000000       0.048
   0.35000000  0.35000000  0.05000000       0.024
   0.45000000  0.35000000  0.05000000       0.048
   0.45000000  0.45000000  0.05000000       0.024
   0.15000000  0.15000000  0.15000000       0.008
   0.25000000  0.15000000  0.15000000       0.024
   0.35000000  0.15000000  0.15000000       0.024
   0.45000000  0.15000000  0.15000000       0.024
   0.25000000  0.25000000  0.15000000       0.024
   0.35000000  0.25000000  0.15000000       0.048
   0.45000000  0.25000000  0.15000000       0.048
   0.35000000  0.35000000  0.15000000       0.024
   0.45000000  0.35000000  0.15000000       0.048
   0.45000000  0.45000000  0.15000000       0.024
   0.25000000  0.25000000  0.25000000       0.008
   0.35000000  0.25000000  0.25000000       0.024
   0.45000000  0.25000000  0.25000000       0.024
   0.35000000  0.35000000  0.25000000       0.024
   0.45000000  0.35000000  0.25000000       0.048
   0.45000000  0.45000000  0.25000000       0.024
   0.35000000  0.35000000  0.35000000       0.008
   0.45000000  0.35000000  0.35000000       0.024
   0.45000000  0.45000000  0.35000000       0.024
   0.45000000  0.45000000  0.45000000       0.008
 
 position of ions in fractional coordinates (direct lattice) 
   0.00000000  0.00000000  0.00000000
   0.50000000  0.50000000  0.50000000
 
 position of ions in cartesian coordinates  (Angst):
   0.00000000  0.00000000  0.00000000
   1.42002600  1.42002600  1.42002600
 


--------------------------------------------------------------------------------------------------------


 k-point  1 :   0.0500 0.0500 0.0500  plane waves:     428
 k-point  2 :   0.1500 0.0500 0.0500  plane waves:     430
 k-point  3 :   0.2500 0.0500 0.0500  plane waves:     422
 k-point  4 :   0.3500 0.0500 0.0500  plane waves:     422
 k-point  5 :   0.4500 0.0500 0.0500  plane waves:     412
 k-point  6 :   0.1500 0.1500 0.0500  plane waves:     421
 k-point  7 :   0.2500 0.1500 0.0500  plane waves:     418
 k-point  8 :   0.3500 0.1500 0.0500  plane waves:     422
 k-point  9 :   0.4500 0.1500 0.0500  plane waves:     421
 k-point 10 :   0.2500 0.2500 0.0500  plane waves:     417
 k-point 11 :   0.3500 0.2500 0.0500  plane waves:     414
 k-point 12 :   0.4500 0.2500 0.0500  plane waves:     416
 k-point 13 :   0.3500 0.3500 0.0500  plane waves:     411
 k-point 14 :   0.4500 0.3500 0.0500  plane waves:     412
 k-point 15 :   0.4500 0.4500 0.0500  plane waves:     406
 k-point 16 :   0.1500 0.1500 0.1500  plane waves:     419
 k-point 17 :   0.2500 0.1500 0.1500  plane waves:     420
 k-point 18 :   0.3500 0.1500 0.1500  plane waves:     417
 k-point 19 :   0.4500 0.1500 0.1500  plane waves:     420
 k-point 20 :   0.2500 0.2500 0.1500  plane waves:     414
 k-point 21 :   0.3500 0.2500 0.1500  plane waves:     414
 k-point 22 :   0.4500 0.2500 0.1500  plane waves:     417
 k-point 23 :   0.3500 0.3500 0.1500  plane waves:     409
 k-point 24 :   0.4500 0.3500 0.1500  plane waves:     414
 k-point 25 :   0.4500 0.4500 0.1500  plane waves:     411
 k-point 26 :   0.2500 0.2500 0.2500  plane waves:     416
 k-point 27 :   0.3500 0.2500 0.2500  plane waves:     419
 k-point 28 :   0.4500 0.2500 0.2500  plane waves:     418
 k-point 29 :   0.3500 0.3500 0.2500  plane waves:     415
 k-point 30 :   0.4500 0.3500 0.2500  plane waves:     418
 k-point 31 :   0.4500 0.4500 0.2500  plane waves:     410
 k-point 32 :   0.3500 0.3500 0.3500  plane waves:     414
 k-point 33 :   0.4500 0.3500 0.3500  plane waves:     419
 k-point 34 :   0.4500 0.4500 0.3500  plane waves:     420
 k-point 35 :   0.4500 0.4500 0.4500  plane waves:     426

 maximum and minimum number of plane-waves per node :       114       90

 maximum number of plane-waves:       430
 maximum index in each direction: 
   IXMAX=    4   IYMAX=    4   IZMAX=    4
   IXMIN=   -5   IYMIN=   -5   IZMIN=   -5


 real space projection operators:
  total allocation   :       1253.53 KBytes
  max/ min on nodes  :        315.98        310.78


 parallel 3D FFT for wavefunctions:
    minimum data exchange during FFTs selected (reduces bandwidth)
 parallel 3D FFT for charge:
    minimum data exchange during FFTs selected (reduces bandwidth)


 total amount of memory used by VASP MPI-rank0    31740. kBytes
=======================================================================

   base      :      30000. kBytes
   nonlr-proj:        544. kBytes
   fftplans  :        172. kBytes
   grid      :        402. kBytes
   one-center:         31. kBytes
   wavefun   :        591. kBytes
 
     INWAV:  cpu time    0.0000: real time    0.0001
 Broyden mixing: mesh for mixing (old mesh)
   NGX =  9   NGY =  9   NGZ =  9
  (NGX  = 40   NGY  = 40   NGZ  = 40)
  gives a total of    729 points

 initial charge density was supplied:
 charge density of overlapping atoms calculated
 number of electron      28.0000000 magnetization      10.0000000
 keeping initial charge density in first step


--------------------------------------------------------------------------------------------------------


 Maximum index for non-local projection operator         1145
 Maximum index for augmentation-charges          561 (set IRDMAX)


--------------------------------------------------------------------------------------------------------


 First call to EWALD:  gamma=   0.624
 Maximum number of real-space cells 3x 3x 3
 Maximum number of reciprocal cells 3x 3x 3

    FEWALD:  cpu time    0.0012: real time    0.0013


--------------------------------------- Iteration      1(   1)  ---------------------------------------


    POTLOK:  cpu time    0.0062: real time    0.0063
    SETDIJ:  cpu time    0.0054: real time    0.0054
     EDDAV:  cpu time    0.4136: real time    0.4195
 BZINTS: Fermi energy: 18.829711; 28.000000 electrons
         Band energy:-148.917530;  BLOECHL correction: -0.214164
       DOS:  cpu time    0.0350: real time    0.0351
    --------------------------------------------
      LOOP:  cpu time    0.4603: real time    0.4664

 eigenvalue-minimisations  :  3648
 total energy-change (2. order) : 0.1734402E+03  (-0.1552493E+04)
 number of electron      28.0000000 magnetization      10.0000000
 augmentation part       28.0000000 magnetization      10.0000000

 Free energy of the ion-electron system (eV)
  ---------------------------------------------------
  alpha Z        PSCENC =       218.87048721
  Ewald energy   TEWEN  =     -3616.56080017
  -Hartree energ DENC   =     -1162.86386254
  -exchange      EXHF   =         0.00000000
  -V(xc)+E(xc)   XCENC  =       147.54620390
  PAW double counting   =      3997.93860218    -4177.34792201
  entropy T*S    EENTRO =         0.00000000
  eigenvalues    EBANDS =      -148.91752993
  atomic energy  EATOM  =      4914.77500278
  Solvation  Ediel_sol  =         0.00000000
  ---------------------------------------------------
  free energy    TOTEN  =       173.44018142 eV

  energy without entropy =      173.44018142  energy(sigma->0) =      173.44018142


--------------------------------------------------------------------------------------------------------




--------------------------------------- Iteration      1(   2)  ---------------------------------------


     EDDAV:  cpu time    0.3850: real time    0.3860
 BZINTS: Fermi energy: 12.162275; 28.000000 electrons
         Band energy:-333.874454;  BLOECHL correction: -0.071336
       DOS:  cpu time    0.0503: real time    0.0940
    --------------------------------------------
      LOOP:  cpu time    0.4354: real time    0.4800

 eigenvalue-minimisations  :  3432
 total energy-change (2. order) :-0.1849569E+03  (-0.1778687E+03)
 number of electron      28.0000000 magnetization      10.0000000
 augmentation part       28.0000000 magnetization      10.0000000

 Free energy of the ion-electron system (eV)
  ---------------------------------------------------
  alpha Z        PSCENC =       218.87048721
  Ewald energy   TEWEN  =     -3616.56080017
  -Hartree energ DENC   =     -1162.86386254
  -exchange      EXHF   =         0.00000000
  -V(xc)+E(xc)   XCENC  =       147.54620390
  PAW double counting   =      3997.93860218    -4177.34792201
  entropy T*S    EENTRO =         0.00000000
  eigenvalues    EBANDS =      -333.87445393
  atomic energy  EATOM  =      4914.77500278
  Solvation  Ediel_sol  =         0.00000000
  ---------------------------------------------------
  free energy    TOTEN  =       -11.51674258 eV

  energy without entropy =      -11.51674258  energy(sigma->0) =      -11.51674258


--------------------------------------------------------------------------------------------------------




--------------------------------------- Iteration      1(   3)  ---------------------------------------


     EDDAV:  cpu time    0.4224: real time    0.4236
 BZINTS: Fermi energy: 12.039900; 28.000000 electrons
         Band energy:-338.591053;  BLOECHL correction: -0.071317
       DOS:  cpu time    0.0325: real time    0.0325
    --------------------------------------------
      LOOP:  cpu time    0.4549: real time    0.4562

 eigenvalue-minimisations  :  3816
 total energy-change (2. order) :-0.4716599E+01  (-0.4710549E+01)
 number of electron      28.0000000 magnetization      10.0000000
 augmentation part       28.0000000 magnetization      10.0000000

 Free energy of the ion-electron system (eV)
  ---------------------------------------------------
  alpha Z        PSCENC =       218.87048721
  Ewald energy   TEWEN  =     -3616.56080017
  -Hartree energ DENC   =     -1162.86386254
  -exchange      EXHF   =         0.00000000
  -V(xc)+E(xc)   XCENC  =       147.54620390
  PAW double counting   =      3997.93860218    -4177.34792201
  entropy T*S    EENTRO =         0.00000000
  eigenvalues    EBANDS =      -338.59105275
  atomic energy  EATOM  =      4914.77500278
  Solvation  Ediel_sol  =         0.00000000
  ---------------------------------------------------
  free energy    TOTEN  =       -16.23334140 eV

  energy without entropy =      -16.23334140  energy(sigma->0) =      -16.23334140


--------------------------------------------------------------------------------------------------------




--------------------------------------- Iteration      1(   4)  ---------------------------------------


     EDDAV:  cpu time    0.4176: real time    0.4186
 BZINTS: Fermi energy: 12.039629; 28.000000 electrons
         Band energy:-338.626697;  BLOECHL correction: -0.071314
       DOS:  cpu time    0.0333: real time    0.0334
    --------------------------------------------
      LOOP:  cpu time    0.4509: real time    0.4521

 eigenvalue-minimisations  :  3732
 total energy-change (2. order) :-0.3564437E-01  (-0.3564669E-01)
 number of electron      28.0000000 magnetization      10.0000000
 augmentation part       28.0000000 magnetization      10.0000000

 Free energy of the ion-electron system (eV)
  ---------------------------------------------------
  alpha Z        PSCENC =       218.87048721
  Ewald energy   TEWEN  =     -3616.56080017
  -Hartree energ DENC   =     -1162.86386254
  -exchange      EXHF   =         0.00000000
  -V(xc)+E(xc)   XCENC  =       147.54620390
  PAW double counting   =      3997.93860218    -4177.34792201
  entropy T*S    EENTRO =         0.00000000
  eigenvalues    EBANDS =      -338.62669712
  atomic energy  EATOM  =      4914.77500278
  Solvation  Ediel_sol  =         0.00000000
  ---------------------------------------------------
  free energy    TOTEN  =       -16.26898577 eV

  energy without entropy =      -16.26898577  energy(sigma->0) =      -16.26898577


--------------------------------------------------------------------------------------------------------




--------------------------------------- Iteration      1(   5)  ---------------------------------------


     EDDAV:  cpu time    0.4235: real time    0.4253
 BZINTS: Fermi energy: 12.039628; 28.000000 electrons
         Band energy:-338.627326;  BLOECHL correction: -0.071314
       DOS:  cpu time    0.0334: real time    0.0334
    CHARGE:  cpu time    0.0108: real time    0.0109
    MIXING:  cpu time    0.0006: real time    0.0006
    --------------------------------------------
      LOOP:  cpu time    0.4682: real time    0.4702

 eigenvalue-minimisations  :  3828
 total energy-change (2. order) :-0.6292629E-03  (-0.6292916E-03)
 number of electron      28.0000047 magnetization       4.3592495
 augmentation part       15.9022091 magnetization       2.8348510

 Broyden mixing:
  rms(total) = 0.24945E+01    rms(broyden)= 0.24939E+01
  rms(prec ) = 0.39448E+01
  weight for this iteration     100.00

 Free energy of the ion-electron system (eV)
  ---------------------------------------------------
  alpha Z        PSCENC =       218.87048721
  Ewald energy   TEWEN  =     -3616.56080017
  -Hartree energ DENC   =     -1162.86386254
  -exchange      EXHF   =         0.00000000
  -V(xc)+E(xc)   XCENC  =       147.54620390
  PAW double counting   =      3997.93860218    -4177.34792201
  entropy T*S    EENTRO =         0.00000000
  eigenvalues    EBANDS =      -338.62732639
  atomic energy  EATOM  =      4914.77500278
  Solvation  Ediel_sol  =         0.00000000
  ---------------------------------------------------
  free energy    TOTEN  =       -16.26961503 eV

  energy without entropy =      -16.26961503  energy(sigma->0) =      -16.26961503


--------------------------------------------------------------------------------------------------------




--------------------------------------- Iteration      1(   6)  ---------------------------------------


    POTLOK:  cpu time    0.0046: real time    0.0047
    SETDIJ:  cpu time    0.0048: real time    0.0048
     EDDAV:  cpu time    0.3767: real time    0.3776
 BZINTS: Fermi energy:  9.271036; 28.000000 electrons
         Band energy:-409.396879;  BLOECHL correction: -0.036041
       DOS:  cpu time    0.0339: real time    0.0340
    CHARGE:  cpu time    0.0106: real time    0.0106
    MIXING:  cpu time    0.0004: real time    0.0004
    --------------------------------------------
      LOOP:  cpu time    0.4310: real time    0.4321

 eigenvalue-minimisations  :  3420
 total energy-change (2. order) :-0.1679957E+00  (-0.7472133E+00)
 number of electron      28.0000049 magnetization       4.5340502
 augmentation part       17.0617337 magnetization       3.5521530

 Broyden mixing:
  rms(total) = 0.68994E+00    rms(broyden)= 0.68829E+00
  rms(prec ) = 0.86311E+00
  weight for this iteration     100.00

 eigenvalues of (default mixing * dielectric matrix)
  average eigenvalue GAMMA=   0.8380
  0.8380

 Free energy of the ion-electron system (eV)
  ---------------------------------------------------
  alpha Z        PSCENC =       218.87048721
  Ewald energy   TEWEN  =     -3616.56080017
  -Hartree energ DENC   =     -1089.20934986
  -exchange      EXHF   =         0.00000000
  -V(xc)+E(xc)   XCENC  =       140.65296591
  PAW double counting   =      4113.12638746    -4288.69542478
  entropy T*S    EENTRO =         0.00000000
  eigenvalues    EBANDS =      -409.39687924
  atomic energy  EATOM  =      4914.77500278
  Solvation  Ediel_sol  =         0.00000000
  ---------------------------------------------------
  free energy    TOTEN  =       -16.43761069 eV

  energy without entropy =      -16.43761069  energy(sigma->0) =      -16.43761069


--------------------------------------------------------------------------------------------------------




--------------------------------------- Iteration      1(   7)  ---------------------------------------


    POTLOK:  cpu time    0.0046: real time    0.0047
    SETDIJ:  cpu time    0.0046: real time    0.0046
     EDDAV:  cpu time    0.3754: real time    0.3763
 BZINTS: Fermi energy:  9.764633; 28.000000 electrons
         Band energy:-395.099033;  BLOECHL correction: -0.033726
       DOS:  cpu time    0.0330: real time    0.0331
    CHARGE:  cpu time    0.0158: real time    0.0158
    MIXING:  cpu time    0.0003: real time    0.0003
    --------------------------------------------
      LOOP:  cpu time    0.4336: real time    0.4347

 eigenvalue-minimisations  :  3396
 total energy-change (2. order) :-0.7088352E-01  (-0.6095081E-01)
 number of electron      28.0000048 magnetization       4.4455351
 augmentation part       16.7711006 magnetization       3.5278867

 Broyden mixing:
  rms(total) = 0.43008E+00    rms(broyden)= 0.42977E+00
  rms(prec ) = 0.52374E+00
  weight for this iteration     100.00

 eigenvalues of (default mixing * dielectric matrix)
  average eigenvalue GAMMA=   0.7671
  0.9879  0.5463

 Free energy of the ion-electron system (eV)
  ---------------------------------------------------
  alpha Z        PSCENC =       218.87048721
  Ewald energy   TEWEN  =     -3616.56080017
  -Hartree energ DENC   =     -1099.13606896
  -exchange      EXHF   =         0.00000000
  -V(xc)+E(xc)   XCENC  =       141.33128583
  PAW double counting   =      4218.36456506    -4399.05393289
  entropy T*S    EENTRO =         0.00000000
  eigenvalues    EBANDS =      -395.09903307
  atomic energy  EATOM  =      4914.77500278
  Solvation  Ediel_sol  =         0.00000000
  ---------------------------------------------------
  free energy    TOTEN  =       -16.50849421 eV

  energy without entropy =      -16.50849421  energy(sigma->0) =      -16.50849421


--------------------------------------------------------------------------------------------------------




--------------------------------------- Iteration      1(   8)  ---------------------------------------


    POTLOK:  cpu time    0.0045: real time    0.0048
    SETDIJ:  cpu time    0.0046: real time    0.0046
     EDDAV:  cpu time    0.4165: real time    0.4175
 BZINTS: Fermi energy:  9.692561; 28.000000 electrons
         Band energy:-397.333555;  BLOECHL correction: -0.033959
       DOS:  cpu time    0.0330: real time    0.0331
    CHARGE:  cpu time    0.0106: real time    0.0106
    MIXING:  cpu time    0.0003: real time    0.0003
    --------------------------------------------
      LOOP:  cpu time    0.4696: real time    0.4709

 eigenvalue-minimisations  :  3732
 total energy-change (2. order) :-0.1178078E-01  (-0.1471505E-02)
 number of electron      28.0000048 magnetization       4.3702053
 augmentation part       16.8060588 magnetization       3.4526068

 Broyden mixing:
  rms(total) = 0.13684E+00    rms(broyden)= 0.13673E+00
  rms(prec ) = 0.21417E+00
  weight for this iteration     100.00

 eigenvalues of (default mixing * dielectric matrix)
  average eigenvalue GAMMA=   1.0475
  1.6997  0.8554  0.5874

 Free energy of the ion-electron system (eV)
  ---------------------------------------------------
  alpha Z        PSCENC =       218.87048721
  Ewald energy   TEWEN  =     -3616.56080017
  -Hartree energ DENC   =     -1095.25719694
  -exchange      EXHF   =         0.00000000
  -V(xc)+E(xc)   XCENC  =       141.10776119
  PAW double counting   =      4266.48559414    -4448.60756821
  entropy T*S    EENTRO =         0.00000000
  eigenvalues    EBANDS =      -397.33355498
  atomic energy  EATOM  =      4914.77500278
  Solvation  Ediel_sol  =         0.00000000
  ---------------------------------------------------
  free energy    TOTEN  =       -16.52027498 eV

  energy without entropy =      -16.52027498  energy(sigma->0) =      -16.52027498


--------------------------------------------------------------------------------------------------------




--------------------------------------- Iteration      1(   9)  ---------------------------------------


    POTLOK:  cpu time    0.0046: real time    0.0055
    SETDIJ:  cpu time    0.0048: real time    0.0048
     EDDAV:  cpu time    0.3971: real time    0.3981
 BZINTS: Fermi energy:  9.614655; 28.000000 electrons
         Band energy:-399.627573;  BLOECHL correction: -0.034483
       DOS:  cpu time    0.0330: real time    0.0331
    CHARGE:  cpu time    0.0106: real time    0.0106
    MIXING:  cpu time    0.0003: real time    0.0003
    --------------------------------------------
      LOOP:  cpu time    0.4503: real time    0.4523

 eigenvalue-minimisations  :  3600
 total energy-change (2. order) : 0.7457907E-02  (-0.5262296E-03)
 number of electron      28.0000048 magnetization       4.4015766
 augmentation part       16.8417397 magnetization       3.4823027

 Broyden mixing:
  rms(total) = 0.33732E-01    rms(broyden)= 0.33663E-01
  rms(prec ) = 0.45676E-01
  weight for this iteration     100.00

 eigenvalues of (default mixing * dielectric matrix)
  average eigenvalue GAMMA=   1.1835
  2.3335  1.0608  0.6937  0.6460

 Free energy of the ion-electron system (eV)
  ---------------------------------------------------
  alpha Z        PSCENC =       218.87048721
  Ewald energy   TEWEN  =     -3616.56080017
  -Hartree energ DENC   =     -1090.36951972
  -exchange      EXHF   =         0.00000000
  -V(xc)+E(xc)   XCENC  =       140.86456238
  PAW double counting   =      4342.82440253    -4527.28937926
  entropy T*S    EENTRO =         0.00000000
  eigenvalues    EBANDS =      -399.62757284
  atomic energy  EATOM  =      4914.77500278
  Solvation  Ediel_sol  =         0.00000000
  ---------------------------------------------------
  free energy    TOTEN  =       -16.51281708 eV

  energy without entropy =      -16.51281708  energy(sigma->0) =      -16.51281708


--------------------------------------------------------------------------------------------------------




--------------------------------------- Iteration      1(  10)  ---------------------------------------


    POTLOK:  cpu time    0.0045: real time    0.0046
    SETDIJ:  cpu time    0.0046: real time    0.0046
     EDDAV:  cpu time    0.3804: real time    0.3815
 BZINTS: Fermi energy:  9.628008; 28.000000 electrons
         Band energy:-399.114432;  BLOECHL correction: -0.034651
       DOS:  cpu time    0.0321: real time    0.0322
    CHARGE:  cpu time    0.0145: real time    0.0145
    MIXING:  cpu time    0.0003: real time    0.0003
    --------------------------------------------
      LOOP:  cpu time    0.4365: real time    0.4378

 eigenvalue-minimisations  :  3444
 total energy-change (2. order) : 0.5320179E-04  (-0.2168947E-03)
 number of electron      28.0000048 magnetization       4.4066350
 augmentation part       16.8302015 magnetization       3.4848104

 Broyden mixing:
  rms(total) = 0.43618E-02    rms(broyden)= 0.43595E-02
  rms(prec ) = 0.54808E-02
  weight for this iteration     100.00

 eigenvalues of (default mixing * dielectric matrix)
  average eigenvalue GAMMA=   1.1317
  2.4351  1.1033  0.7817  0.7060  0.6325

 Free energy of the ion-electron system (eV)
  ---------------------------------------------------
  alpha Z        PSCENC =       218.87048721
  Ewald energy   TEWEN  =     -3616.56080017
  -Hartree energ DENC   =     -1089.95664619
  -exchange      EXHF   =         0.00000000
  -V(xc)+E(xc)   XCENC  =       140.87108321
  PAW double counting   =      4371.80812525    -4557.20558389
  entropy T*S    EENTRO =         0.00000000
  eigenvalues    EBANDS =      -399.11443208
  atomic energy  EATOM  =      4914.77500278
  Solvation  Ediel_sol  =         0.00000000
  ---------------------------------------------------
  free energy    TOTEN  =       -16.51276387 eV

  energy without entropy =      -16.51276387  energy(sigma->0) =      -16.51276387


--------------------------------------------------------------------------------------------------------




--------------------------------------- Iteration      1(  11)  ---------------------------------------


    POTLOK:  cpu time    0.0045: real time    0.0046
    SETDIJ:  cpu time    0.0046: real time    0.0046
     EDDAV:  cpu time    0.3957: real time    0.3966
 BZINTS: Fermi energy:  9.626490; 28.000000 electrons
         Band energy:-399.145295;  BLOECHL correction: -0.034666
       DOS:  cpu time    0.0339: real time    0.0340
    CHARGE:  cpu time    0.0106: real time    0.0107
    MIXING:  cpu time    0.0003: real time    0.0003
    --------------------------------------------
      LOOP:  cpu time    0.4497: real time    0.4508

 eigenvalue-minimisations  :  3588
 total energy-change (2. order) :-0.6796845E-04  (-0.5589833E-05)
 number of electron      28.0000048 magnetization       4.4059108
 augmentation part       16.8307128 magnetization       3.4843569

 Broyden mixing:
  rms(total) = 0.24700E-02    rms(broyden)= 0.24679E-02
  rms(prec ) = 0.33484E-02
  weight for this iteration     100.00

 eigenvalues of (default mixing * dielectric matrix)
  average eigenvalue GAMMA=   1.2939
  2.2984  2.2984  1.0770  0.6319  0.7503  0.7075

 Free energy of the ion-electron system (eV)
  ---------------------------------------------------
  alpha Z        PSCENC =       218.87048721
  Ewald energy   TEWEN  =     -3616.56080017
  -Hartree energ DENC   =     -1089.94703885
  -exchange      EXHF   =         0.00000000
  -V(xc)+E(xc)   XCENC  =       140.87337252
  PAW double counting   =      4373.12642054    -4558.50498137
  entropy T*S    EENTRO =         0.00000000
  eigenvalues    EBANDS =      -399.14529451
  atomic energy  EATOM  =      4914.77500278
  Solvation  Ediel_sol  =         0.00000000
  ---------------------------------------------------
  free energy    TOTEN  =       -16.51283184 eV

  energy without entropy =      -16.51283184  energy(sigma->0) =      -16.51283184


--------------------------------------------------------------------------------------------------------




--------------------------------------- Iteration      1(  12)  ---------------------------------------


    POTLOK:  cpu time    0.0046: real time    0.0047
    SETDIJ:  cpu time    0.0046: real time    0.0046
     EDDAV:  cpu time    0.4159: real time    0.4171
 BZINTS: Fermi energy:  9.625020; 28.000000 electrons
         Band energy:-399.178225;  BLOECHL correction: -0.034677
       DOS:  cpu time    0.0339: real time    0.0340
    CHARGE:  cpu time    0.0106: real time    0.0106
    MIXING:  cpu time    0.0003: real time    0.0003
    --------------------------------------------
      LOOP:  cpu time    0.4699: real time    0.4713

 eigenvalue-minimisations  :  3780
 total energy-change (2. order) :-0.6939722E-05  (-0.4352080E-06)
 number of electron      28.0000048 magnetization       4.4055877
 augmentation part       16.8313949 magnetization       3.4843263

 Broyden mixing:
  rms(total) = 0.94577E-03    rms(broyden)= 0.94527E-03
  rms(prec ) = 0.13148E-02
  weight for this iteration     100.00

 eigenvalues of (default mixing * dielectric matrix)
  average eigenvalue GAMMA=   1.2318
  2.4070  2.2810  1.0879  0.8191  0.7369  0.6452  0.6452

 Free energy of the ion-electron system (eV)
  ---------------------------------------------------
  alpha Z        PSCENC =       218.87048721
  Ewald energy   TEWEN  =     -3616.56080017
  -Hartree energ DENC   =     -1089.99922256
  -exchange      EXHF   =         0.00000000
  -V(xc)+E(xc)   XCENC  =       140.87611746
  PAW double counting   =      4374.12535790    -4559.42155649
  entropy T*S    EENTRO =         0.00000000
  eigenvalues    EBANDS =      -399.17822491
  atomic energy  EATOM  =      4914.77500278
  Solvation  Ediel_sol  =         0.00000000
  ---------------------------------------------------
  free energy    TOTEN  =       -16.51283878 eV

  energy without entropy =      -16.51283878  energy(sigma->0) =      -16.51283878


--------------------------------------------------------------------------------------------------------




--------------------------------------- Iteration      1(  13)  ---------------------------------------


    POTLOK:  cpu time    0.0045: real time    0.0046
    SETDIJ:  cpu time    0.0046: real time    0.0046
     EDDAV:  cpu time    0.3914: real time    0.3923
 BZINTS: Fermi energy:  9.625729; 28.000000 electrons
         Band energy:-399.163878;  BLOECHL correction: -0.034668
       DOS:  cpu time    0.0330: real time    0.0331
    CHARGE:  cpu time    0.0106: real time    0.0106
    MIXING:  cpu time    0.0004: real time    0.0004
    --------------------------------------------
      LOOP:  cpu time    0.4446: real time    0.4457

 eigenvalue-minimisations  :  3552
 total energy-change (2. order) : 0.7834054E-05  (-0.1616250E-06)
 number of electron      28.0000048 magnetization       4.4054314
 augmentation part       16.8310475 magnetization       3.4840282

 Broyden mixing:
  rms(total) = 0.14223E-03    rms(broyden)= 0.14031E-03
  rms(prec ) = 0.16976E-03
  weight for this iteration     100.00

 eigenvalues of (default mixing * dielectric matrix)
  average eigenvalue GAMMA=   1.2902
  2.5387  2.4476  1.4645  1.0651  0.7998  0.6263  0.6896  0.6896

 Free energy of the ion-electron system (eV)
  ---------------------------------------------------
  alpha Z        PSCENC =       218.87048721
  Ewald energy   TEWEN  =     -3616.56080017
  -Hartree energ DENC   =     -1090.00671481
  -exchange      EXHF   =         0.00000000
  -V(xc)+E(xc)   XCENC  =       140.87588045
  PAW double counting   =      4374.24872466    -4559.55153336
  entropy T*S    EENTRO =         0.00000000
  eigenvalues    EBANDS =      -399.16387770
  atomic energy  EATOM  =      4914.77500278
  Solvation  Ediel_sol  =         0.00000000
  ---------------------------------------------------
  free energy    TOTEN  =       -16.51283095 eV

  energy without entropy =      -16.51283095  energy(sigma->0) =      -16.51283095


--------------------------------------------------------------------------------------------------------




--------------------------------------- Iteration      1(  14)  ---------------------------------------


    POTLOK:  cpu time    0.0046: real time    0.0047
    SETDIJ:  cpu time    0.0046: real time    0.0046
     EDDAV:  cpu time    0.3355: real time    0.3365
 BZINTS: Fermi energy:  9.625836; 28.000000 electrons
         Band energy:-399.161861;  BLOECHL correction: -0.034668
       DOS:  cpu time    0.0339: real time    0.0340
    CHARGE:  cpu time    0.0106: real time    0.0106
    MIXING:  cpu time    0.0004: real time    0.0004
    --------------------------------------------
      LOOP:  cpu time    0.3895: real time    0.3907

 eigenvalue-minimisations  :  2796
 total energy-change (2. order) : 0.2619363E-06  (-0.9066357E-08)
 number of electron      28.0000048 magnetization       4.4054575
 augmentation part       16.8309972 magnetization       3.4840451

 Broyden mixing:
  rms(total) = 0.66173E-04    rms(broyden)= 0.64638E-04
  rms(prec ) = 0.85269E-04
  weight for this iteration     100.00

 eigenvalues of (default mixing * dielectric matrix)
  average eigenvalue GAMMA=   1.2108
  2.6208  2.4610  1.2839  1.0500  0.8240  0.6873  0.6873  0.6387  0.6440

 Free energy of the ion-electron system (eV)
  ---------------------------------------------------
  alpha Z        PSCENC =       218.87048721
  Ewald energy   TEWEN  =     -3616.56080017
  -Hartree energ DENC   =     -1090.00862108
  -exchange      EXHF   =         0.00000000
  -V(xc)+E(xc)   XCENC  =       140.87577928
  PAW double counting   =      4374.23960768    -4559.54242520
  entropy T*S    EENTRO =         0.00000000
  eigenvalues    EBANDS =      -399.16186119
  atomic energy  EATOM  =      4914.77500278
  Solvation  Ediel_sol  =         0.00000000
  ---------------------------------------------------
  free energy    TOTEN  =       -16.51283069 eV

  energy without entropy =      -16.51283069  energy(sigma->0) =      -16.51283069


--------------------------------------------------------------------------------------------------------




--------------------------------------- Iteration      1(  15)  ---------------------------------------


    POTLOK:  cpu time    0.0046: real time    0.0047
    SETDIJ:  cpu time    0.0046: real time    0.0046
     EDDAV:  cpu time    0.2498: real time    0.2504
 BZINTS: Fermi energy:  9.625797; 28.000000 electrons
         Band energy:-399.162874;  BLOECHL correction: -0.034668
       DOS:  cpu time    0.0330: real time    0.0331
    CHARGE:  cpu time    0.0105: real time    0.0106
    MIXING:  cpu time    0.0004: real time    0.0004
    --------------------------------------------
      LOOP:  cpu time    0.3029: real time    0.3037

 eigenvalue-minimisations  :  1740
 total energy-change (2. order) :-0.1326052E-06  (-0.7752253E-09)
 number of electron      28.0000048 magnetization       4.4054171
 augmentation part       16.8310193 magnetization       3.4840135

 Broyden mixing:
  rms(total) = 0.28043E-04    rms(broyden)= 0.27917E-04
  rms(prec ) = 0.32454E-04
  weight for this iteration     100.00

 eigenvalues of (default mixing * dielectric matrix)
  average eigenvalue GAMMA=   1.2020
  2.6416  2.4753  1.2469  1.0784  1.0784  0.8301  0.6988  0.6988  0.6306  0.6409

 Free energy of the ion-electron system (eV)
  ---------------------------------------------------
  alpha Z        PSCENC =       218.87048721
  Ewald energy   TEWEN  =     -3616.56080017
  -Hartree energ DENC   =     -1090.00798473
  -exchange      EXHF   =         0.00000000
  -V(xc)+E(xc)   XCENC  =       140.87580309
  PAW double counting   =      4374.23617683    -4559.53864134
  entropy T*S    EENTRO =         0.00000000
  eigenvalues    EBANDS =      -399.16287448
  atomic energy  EATOM  =      4914.77500278
  Solvation  Ediel_sol  =         0.00000000
  ---------------------------------------------------
  free energy    TOTEN  =       -16.51283082 eV

  energy without entropy =      -16.51283082  energy(sigma->0) =      -16.51283082


--------------------------------------------------------------------------------------------------------




--------------------------------------- Iteration      1(  16)  ---------------------------------------


    POTLOK:  cpu time    0.0046: real time    0.0047
    SETDIJ:  cpu time    0.0046: real time    0.0046
     EDDAV:  cpu time    0.2510: real time    0.2515
 BZINTS: Fermi energy:  9.625809; 28.000000 electrons
         Band energy:-399.162731;  BLOECHL correction: -0.034668
       DOS:  cpu time    0.0339: real time    0.0340
    CHARGE:  cpu time    0.0106: real time    0.0106
    MIXING:  cpu time    0.0005: real time    0.0005
    --------------------------------------------
      LOOP:  cpu time    0.3051: real time    0.3059

 eigenvalue-minimisations  :  1704
 total energy-change (2. order) : 0.2308079E-06  (-0.8647942E-10)
 number of electron      28.0000048 magnetization       4.4054324
 augmentation part       16.8310156 magnetization       3.4840290

 Broyden mixing:
  rms(total) = 0.11849E-04    rms(broyden)= 0.11757E-04
  rms(prec ) = 0.12659E-04
  weight for this iteration     100.00

 eigenvalues of (default mixing * dielectric matrix)
  average eigenvalue GAMMA=   1.2585
  2.6657  2.4616  2.0433  1.3094  1.0513  0.8030  0.8030  0.7196  0.7196  0.6255
  0.6417

 Free energy of the ion-electron system (eV)
  ---------------------------------------------------
  alpha Z        PSCENC =       218.87048721
  Ewald energy   TEWEN  =     -3616.56080017
  -Hartree energ DENC   =     -1090.00800966
  -exchange      EXHF   =         0.00000000
  -V(xc)+E(xc)   XCENC  =       140.87577555
  PAW double counting   =      4374.21746444    -4559.52001994
  entropy T*S    EENTRO =         0.00000000
  eigenvalues    EBANDS =      -399.16273079
  atomic energy  EATOM  =      4914.77500278
  Solvation  Ediel_sol  =         0.00000000
  ---------------------------------------------------
  free energy    TOTEN  =       -16.51283059 eV

  energy without entropy =      -16.51283059  energy(sigma->0) =      -16.51283059


--------------------------------------------------------------------------------------------------------




--------------------------------------- Iteration      1(  17)  ---------------------------------------


    POTLOK:  cpu time    0.0046: real time    0.0053
    SETDIJ:  cpu time    0.0047: real time    0.0047
     EDDAV:  cpu time    0.2452: real time    0.2458
 BZINTS: Fermi energy:  9.625812; 28.000000 electrons
         Band energy:-399.162654;  BLOECHL correction: -0.034668
       DOS:  cpu time    0.0276: real time    0.0279
    CHARGE:  cpu time    0.0101: real time    0.0101
    MIXING:  cpu time    0.0005: real time    0.0005
    --------------------------------------------
      LOOP:  cpu time    0.2927: real time    0.2942

 eigenvalue-minimisations  :  1680
 total energy-change (2. order) :-0.1136632E-06  (-0.1764027E-10)
 number of electron      28.0000048 magnetization       4.4054319
 augmentation part       16.8310146 magnetization       3.4840278

 Broyden mixing:
  rms(total) = 0.29262E-05    rms(broyden)= 0.29037E-05
  rms(prec ) = 0.33138E-05
  weight for this iteration     100.00

 eigenvalues of (default mixing * dielectric matrix)
  average eigenvalue GAMMA=   1.2694
  2.7255  2.5455  2.5455  1.2485  1.0140  1.0140  0.8150  0.7008  0.7008  0.6676
  0.6220  0.6338

 Free energy of the ion-electron system (eV)
  ---------------------------------------------------
  alpha Z        PSCENC =       218.87048721
  Ewald energy   TEWEN  =     -3616.56080017
  -Hartree energ DENC   =     -1090.00768781
  -exchange      EXHF   =         0.00000000
  -V(xc)+E(xc)   XCENC  =       140.87576808
  PAW double counting   =      4374.20476772    -4559.50771413
  entropy T*S    EENTRO =         0.00000000
  eigenvalues    EBANDS =      -399.16265439
  atomic energy  EATOM  =      4914.77500278
  Solvation  Ediel_sol  =         0.00000000
  ---------------------------------------------------
  free energy    TOTEN  =       -16.51283070 eV

  energy without entropy =      -16.51283070  energy(sigma->0) =      -16.51283070


--------------------------------------------------------------------------------------------------------




--------------------------------------- Iteration      1(  18)  ---------------------------------------


    POTLOK:  cpu time    0.0046: real time    0.0047
    SETDIJ:  cpu time    0.0046: real time    0.0047
     EDDAV:  cpu time    0.2446: real time    0.2452
 BZINTS: Fermi energy:  9.625815; 28.000000 electrons
         Band energy:-399.162606;  BLOECHL correction: -0.034668
       DOS:  cpu time    0.0294: real time    0.0295
    --------------------------------------------
      LOOP:  cpu time    0.2833: real time    0.2840

 eigenvalue-minimisations  :  1680
 total energy-change (2. order) : 0.2539309E-08  (-0.2290559E-11)
 number of electron      28.0000048 magnetization       4.4054319
 augmentation part       16.8310146 magnetization       3.4840278

 Free energy of the ion-electron system (eV)
  ---------------------------------------------------
  alpha Z        PSCENC =       218.87048721
  Ewald energy   TEWEN  =     -3616.56080017
  -Hartree energ DENC   =     -1090.00770098
  -exchange      EXHF   =         0.00000000
  -V(xc)+E(xc)   XCENC  =       140.87576700
  PAW double counting   =      4374.20310326    -4559.50608352
  entropy T*S    EENTRO =         0.00000000
  eigenvalues    EBANDS =      -399.16260628
  atomic energy  EATOM  =      4914.77500278
  Solvation  Ediel_sol  =         0.00000000
  ---------------------------------------------------
  free energy    TOTEN  =       -16.51283070 eV

  energy without entropy =      -16.51283070  energy(sigma->0) =      -16.51283070


--------------------------------------------------------------------------------------------------------




 average (electrostatic) potential at core
  the test charge radii are     0.9500
  (the norm of the test charge is              1.0000)
       1 -73.6587       2 -73.6587
 
 
 
 E-fermi :   9.6258     XC(G=0): -13.6258     alpha+bet :-17.4163


 spin component 1

 k-point     1 :       0.0500    0.0500    0.0500
  band No.  band energies     occupation 
      1     -44.5569      1.00000
      2     -44.5569      1.00000
      3     -44.5419      1.00000
      4     -44.2847      1.00000
      5     -44.2695      1.00000
      6     -44.2695      1.00000
      7       1.3945      1.00000
      8       4.9418      1.00000
      9       4.9418      1.00000
     10       7.3097      1.00000
     11       7.3097      1.00000
     12       7.4353      1.00000
     13       8.5842      1.00000
     14       8.5842      1.00000
     15       9.4979      1.00000
     16       9.6902      0.60094
     17       9.6902      0.00980
     18      19.1971      0.00000
     19      19.1971      0.00000
     20      19.4386      0.00000
     21      25.8125      0.00000
     22      25.8125      0.00000
     23      30.6872      0.00000
     24      33.3496      0.00000

 k-point     2 :       0.1500    0.0500    0.0500
  band No.  band energies     occupation 
      1     -44.5625      1.00000
      2     -44.5418      1.00000
      3     -44.5198      1.00000
      4     -44.3166      1.00000
      5     -44.2833      1.00000
      6     -44.2751      1.00000
      7       1.7982      1.00000
      8       5.1096      1.00000
      9       5.1121      1.00000
     10       7.2510      1.00000
     11       7.2988      1.00000
     12       7.6032      1.00000
     13       8.4181      1.00000
     14       8.6592      1.00000
     15       9.1073      1.00000
     16       9.3757      1.02105
     17       9.6688      0.13607
     18      17.0967      0.00000
     19      19.9163      0.00000
     20      20.0928      0.00000
     21      25.9639      0.00000
     22      27.1444      0.00000
     23      31.5535      0.00000
     24      32.1412      0.00000

 k-point     3 :       0.2500    0.0500    0.0500
  band No.  band energies     occupation 
      1     -44.5593      1.00000
      2     -44.5137      1.00000
      3     -44.4890      1.00000
      4     -44.3637      1.00000
      5     -44.3085      1.00000
      6     -44.2952      1.00000
      7       2.5640      1.00000
      8       5.3710      1.00000
      9       5.4311      1.00000
     10       7.2468      1.00000
     11       7.2917      1.00000
     12       7.8457      1.00000
     13       8.1117      1.00000
     14       8.6100      1.00000
     15       8.7989      1.00000
     16       8.8923      1.00000
     17       9.4891      1.03898
     18      14.5739      0.00000
     19      21.1857      0.00000
     20      21.3557      0.00000
     21      26.2964      0.00000
     22      27.9700      0.00000
     23      29.6300      0.00000
     24      31.2952      0.00000

 k-point     4 :       0.3500    0.0500    0.0500
  band No.  band energies     occupation 
      1     -44.5446      1.00000
      2     -44.4755      1.00000
      3     -44.4507      1.00000
      4     -44.4192      1.00000
      5     -44.3440      1.00000
      6     -44.3268      1.00000
      7       3.5867      1.00000
      8       5.5428      1.00000
      9       5.8763      1.00000
     10       7.2498      1.00000
     11       7.3254      1.00000
     12       7.7718      1.00000
     13       8.1340      1.00000
     14       8.1541      1.00000
     15       8.3964      1.00000
     16       9.0230      1.00000
     17       9.2037      1.03871
     18      12.2824      0.00000
     19      22.7930      0.00000
     20      23.0047      0.00000
     21      26.8770      0.00000
     22      27.8756      0.00000
     23      28.6076      0.00000
     24      29.1455      0.00000

 k-point     5 :       0.4500    0.0500    0.0500
  band No.  band energies     occupation 
      1     -44.5152      1.00000
      2     -44.4719      1.00000
      3     -44.4315      1.00000
      4     -44.4084      1.00000
      5     -44.3862      1.00000
      6     -44.3656      1.00000
      7       4.6400      1.00000
      8       5.3590      1.00000
      9       6.3987      1.00000
     10       6.9214      1.00000
     11       7.5031      1.00000
     12       7.7351      1.00000
     13       7.7664      1.00000
     14       7.9894      1.00000
     15       8.5029      1.00000
     16       8.8611      1.00000
     17       9.4861      0.98568
     18      10.5204      0.00000
     19      24.5316      0.00000
     20      24.9020      0.00000
     21      26.2269      0.00000
     22      26.9648      0.00000
     23      27.8221      0.00000
     24      29.2510      0.00000

 k-point     6 :       0.1500    0.1500    0.0500
  band No.  band energies     occupation 
      1     -44.5762      1.00000
      2     -44.5327      1.00000
      3     -44.4872      1.00000
      4     -44.3578      1.00000
      5     -44.2933      1.00000
      6     -44.2696      1.00000
      7       2.1862      1.00000
      8       5.2428      1.00000
      9       5.3019      1.00000
     10       7.0983      1.00000
     11       7.2419      1.00000
     12       7.8741      1.00000
     13       8.4425      1.00000
     14       8.6146      1.00000
     15       8.6280      1.00000
     16       9.1529      1.00690
     17       9.7380      0.03105
     18      17.1945      0.00000
     19      18.2783      0.00000
     20      20.6482      0.00000
     21      26.6294      0.00000
     22      28.5405      0.00000
     23      29.9225      0.00000
     24      31.9700      0.00000

 k-point     7 :       0.2500    0.1500    0.0500
  band No.  band energies     occupation 
      1     -44.5856      1.00000
      2     -44.5071      1.00000
      3     -44.4491      1.00000
      4     -44.4123      1.00000
      5     -44.3162      1.00000
      6     -44.2767      1.00000
      7       2.9129      1.00000
      8       5.4589      1.00000
      9       5.6243      1.00000
     10       6.9930      1.00000
     11       7.1867      1.00000
     12       8.1092      1.00000
     13       8.2042      1.00000
     14       8.2865      1.00000
     15       8.7249      1.00000
     16       8.7287      1.00000
     17       9.6918      0.28855
     18      14.9825      0.00000
     19      19.0099      0.00000
     20      21.7932      0.00000
     21      27.0205      0.00000
     22      27.7476      0.00000
     23      29.9238      0.00000
     24      30.6410      0.00000

 k-point     8 :       0.3500    0.1500    0.0500
  band No.  band energies     occupation 
      1     -44.5814      1.00000
      2     -44.4715      1.00000
      3     -44.4702      1.00000
      4     -44.4084      1.00000
      5     -44.3489      1.00000
      6     -44.2980      1.00000
      7       3.8559      1.00000
      8       5.5982      1.00000
      9       6.0151      1.00000
     10       6.9688      1.00000
     11       7.1227      1.00000
     12       7.6707      1.00000
     13       8.0971      1.00000
     14       8.3411      1.00000
     15       8.5681      1.00000
     16       8.9671      1.00000
     17       9.5001      0.92367
     18      12.6526      0.00000
     19      20.3743      0.00000
     20      23.3097      0.00000
     21      25.6597      0.00000
     22      27.5890      0.00000
     23      28.7779      0.00000
     24      30.9251      0.00000

 k-point     9 :       0.4500    0.1500    0.0500
  band No.  band energies     occupation 
      1     -44.5602      1.00000
      2     -44.5216      1.00000
      3     -44.4303      1.00000
      4     -44.3881      1.00000
      5     -44.3676      1.00000
      6     -44.3294      1.00000
      7       4.7812      1.00000
      8       5.4057      1.00000
      9       6.4403      1.00000
     10       6.8187      1.00000
     11       7.1537      1.00000
     12       7.3595      1.00000
     13       8.0588      1.00000
     14       8.1322      1.00000
     15       8.8930      1.00000
     16       9.2116      1.00000
     17       9.5438      0.78032
     18      10.7650      0.00000
     19      21.9633      0.00000
     20      23.7281      0.00000
     21      25.0453      0.00000
     22      26.8814      0.00000
     23      28.4941      0.00000
     24      29.8465      0.00000

 k-point    10 :       0.2500    0.2500    0.0500
  band No.  band energies     occupation 
      1     -44.6085      1.00000
      2     -44.4864      1.00000
      3     -44.4722      1.00000
      4     -44.4060      1.00000
      5     -44.3339      1.00000
      6     -44.2694      1.00000
      7       3.5364      1.00000
      8       5.5138      1.00000
      9       6.0178      1.00000
     10       6.7762      1.00000
     11       7.1572      1.00000
     12       7.6023      1.00000
     13       8.4304      1.00000
     14       8.4323      1.00000
     15       8.6268      1.00000
     16       8.6691      1.00000
     17       9.8112     -0.03426
     18      14.8624      0.00000
     19      17.4633      0.00000
     20      22.7523      0.00000
     21      25.3825      0.00000
     22      27.3660      0.00000
     23      30.0595      0.00000
     24      32.3859      0.00000

 k-point    11 :       0.3500    0.2500    0.0500
  band No.  band energies     occupation 
      1     -44.6176      1.00000
      2     -44.5302      1.00000
      3     -44.4573      1.00000
      4     -44.3644      1.00000
      5     -44.3594      1.00000
      6     -44.2765      1.00000
      7       4.2625      1.00000
      8       5.4707      1.00000
      9       6.4709      1.00000
     10       6.6686      1.00000
     11       7.1933      1.00000
     12       7.2463      1.00000
     13       8.2762      1.00000
     14       8.4086      1.00000
     15       8.8139      1.00000
     16       9.0733      1.02192
     17       9.7614      0.00359
     18      13.0478      0.00000
     19      18.1014      0.00000
     20      23.1665      0.00000
     21      24.0638      0.00000
     22      27.8473      0.00000
     23      28.7843      0.00000
     24      31.4390      0.00000

 k-point    12 :       0.4500    0.2500    0.0500
  band No.  band energies     occupation 
      1     -44.6081      1.00000
      2     -44.5777      1.00000
      3     -44.4241      1.00000
      4     -44.3902      1.00000
      5     -44.3272      1.00000
      6     -44.2966      1.00000
      7       4.8672      1.00000
      8       5.2616      1.00000
      9       6.6868      1.00000
     10       6.7746      1.00000
     11       7.0157      1.00000
     12       7.2270      1.00000
     13       8.3161      1.00000
[...]
     19      18.3217      0.00000
     20      20.7939      0.00000
     21      22.3831      0.00000
     22      24.8374      0.00000
     23      26.2445      0.00000
     24      30.1334      0.00000

 k-point    30 :       0.4500    0.3500    0.2500
  band No.  band energies     occupation 
      1     -42.0231      1.00000
      2     -42.0227      1.00000
      3     -41.8715      1.00000
      4     -41.8201      1.00000
      5     -41.7131      1.00000
      6     -41.7087      1.00000
      7       6.7340      1.00000
      8       7.0474      1.00000
      9       7.9715      1.00000
     10       7.9820      1.00000
     11       8.3670      1.00000
     12       8.4936      1.00000
     13      11.1879      0.00000
     14      11.2385      0.00000
     15      11.5190      0.00000
     16      11.5373      0.00000
     17      13.8195      0.00000
     18      14.8914      0.00000
     19      19.1253      0.00000
     20      20.5759      0.00000
     21      21.9105      0.00000
     22      23.4368      0.00000
     23      26.7624      0.00000
     24      28.2335      0.00000

 k-point    31 :       0.4500    0.4500    0.2500
  band No.  band energies     occupation 
      1     -42.0308      1.00000
      2     -42.0302      1.00000
      3     -41.8519      1.00000
      4     -41.8311      1.00000
      5     -41.7189      1.00000
      6     -41.7153      1.00000
      7       6.8551      1.00000
      8       6.9359      1.00000
      9       7.8893      1.00000
     10       7.9040      1.00000
     11       8.6630      1.00000
     12       8.7322      1.00000
     13      11.3048      0.00000
     14      11.3296      0.00000
     15      11.5307      0.00000
     16      11.5433      0.00000
     17      14.4961      0.00000
     18      15.0187      0.00000
     19      18.3883      0.00000
     20      19.0480      0.00000
     21      23.0047      0.00000
     22      24.1225      0.00000
     23      25.2271      0.00000
     24      26.3258      0.00000

 k-point    32 :       0.3500    0.3500    0.3500
  band No.  band energies     occupation 
      1     -42.0068      1.00000
      2     -41.9567      1.00000
      3     -41.9567      1.00000
      4     -41.7672      1.00000
      5     -41.7672      1.00000
      6     -41.7172      1.00000
      7       6.9263      1.00000
      8       7.5040      1.00000
      9       7.9317      1.00000
     10       7.9317      1.00000
     11       8.0768      1.00000
     12       8.0768      1.00000
     13      11.3803      0.00000
     14      11.3803      0.00000
     15      11.4194      0.00000
     16      11.4194      0.00000
     17      13.8680      0.00000
     18      17.4985      0.00000
     19      17.4985      0.00000
     20      19.8817      0.00000
     21      22.8247      0.00000
     22      22.8247      0.00000
     23      24.1381      0.00000
     24      28.0370      0.00000

 k-point    33 :       0.4500    0.3500    0.3500
  band No.  band energies     occupation 
      1     -42.0017      1.00000
      2     -41.9858      1.00000
      3     -41.8939      1.00000
      4     -41.8288      1.00000
      5     -41.7510      1.00000
      6     -41.7320      1.00000
      7       7.2817      1.00000
      8       7.3853      1.00000
      9       7.8754      1.00000
     10       7.9235      1.00000
     11       8.0497      1.00000
     12       8.2196      1.00000
     13      11.3636      0.00000
     14      11.3888      0.00000
     15      11.5069      0.00000
     16      11.5180      0.00000
     17      14.8082      0.00000
     18      16.0291      0.00000
     19      19.1320      0.00000
     20      20.4255      0.00000
     21      20.9126      0.00000
     22      21.6662      0.00000
     23      24.5470      0.00000
     24      26.0839      0.00000

 k-point    34 :       0.4500    0.4500    0.3500
  band No.  band energies     occupation 
      1     -41.9845      1.00000
      2     -41.9734      1.00000
      3     -41.8801      1.00000
      4     -41.8436      1.00000
      5     -41.7738      1.00000
      6     -41.7588      1.00000
      7       7.4315      1.00000
      8       7.4444      1.00000
      9       7.8063      1.00000
     10       7.8487      1.00000
     11       8.1752      1.00000
     12       8.2635      1.00000
     13      11.4476      0.00000
     14      11.4584      0.00000
     15      11.5373      0.00000
     16      11.5415      0.00000
     17      15.8076      0.00000
     18      16.5902      0.00000
     19      18.5404      0.00000
     20      19.5001      0.00000
     21      21.0100      0.00000
     22      22.1197      0.00000
     23      22.9627      0.00000
     24      24.1560      0.00000

 k-point    35 :       0.4500    0.4500    0.4500
  band No.  band energies     occupation 
      1     -41.9397      1.00000
      2     -41.9073      1.00000
      3     -41.9073      1.00000
      4     -41.8386      1.00000
      5     -41.8386      1.00000
      6     -41.8051      1.00000
      7       7.6662      1.00000
      8       7.8120      1.00000
      9       7.8120      1.00000
     10       7.9102      1.00000
     11       7.9559      1.00000
     12       7.9559      1.00000
     13      11.5432      0.00000
     14      11.5432      0.00000
     15      11.5461      0.00000
     16      11.5461      0.00000
     17      17.1217      0.00000
     18      18.3161      0.00000
     19      18.3161      0.00000
     20      19.9986      0.00000
     21      20.1688      0.00000
     22      20.1688      0.00000
     23      21.5094      0.00000
     24      22.3052      0.00000


--------------------------------------------------------------------------------------------------------


 soft charge-density along one line, spin component           1
         0         1         2         3         4         5         6         7         8         9
 total charge-density along one line
 
 soft charge-density along one line, spin component           2
         0         1         2         3         4         5         6         7         8         9
 total charge-density along one line
 
 pseudopotential strength for first ion, spin component:           1
-44.855  -0.000   0.000   7.570   0.000  -0.000   0.000  -0.000
 -0.000 -44.855   0.000   0.000   7.570  -0.000   0.000   0.000
  0.000   0.000 -44.855  -0.000  -0.000   7.570   0.000   0.000
  7.570   0.000  -0.000   5.637   0.000  -0.000  -0.000   0.000
  0.000   7.570  -0.000   0.000   5.637  -0.000  -0.000  -0.000
 -0.000  -0.000   7.570  -0.000  -0.000   5.637  -0.000  -0.000
  0.000   0.000   0.000  -0.000  -0.000  -0.000  -1.978   0.000
 -0.000   0.000   0.000   0.000  -0.000  -0.000   0.000  -1.978
 -0.000  -0.000  -0.000   0.000   0.000  -0.000  -0.000  -0.000
  0.000  -0.000  -0.000  -0.000  -0.000   0.000  -0.000   0.000
 -0.000   0.000   0.000   0.000  -0.000   0.000   0.000   0.000
  0.000   0.000   0.000  -0.000  -0.000  -0.000  -2.492   0.000
 -0.000   0.000   0.000   0.000  -0.000  -0.000   0.000  -2.492
 -0.000  -0.000   0.000   0.000   0.000  -0.000  -0.000  -0.000
  0.000   0.000  -0.000  -0.000  -0.000   0.000  -0.000   0.000
 -0.000   0.000  -0.000   0.000  -0.000  -0.000   0.000   0.000
 -0.000   0.000  -0.000  -0.000   0.000   0.000  -0.000   0.000
 -0.000   0.000  -0.000  -0.000   0.000   0.000  -0.000   0.000
 pseudopotential strength for first ion, spin component:           2
-42.884  -0.000   0.000   6.737   0.000  -0.000   0.000  -0.000
 -0.000 -42.884   0.000   0.000   6.737  -0.000  -0.000   0.000
  0.000   0.000 -42.884  -0.000  -0.000   6.737   0.000  -0.000
  6.737   0.000  -0.000   5.865   0.000  -0.000  -0.000   0.000
  0.000   6.737  -0.000   0.000   5.865  -0.000   0.000  -0.000
 -0.000  -0.000   6.737  -0.000  -0.000   5.865  -0.000   0.000
  0.000  -0.000   0.000  -0.000   0.000  -0.000  -0.451   0.000
 -0.000   0.000  -0.000   0.000  -0.000   0.000   0.000  -0.451
 -0.000  -0.000  -0.000   0.000   0.000   0.000  -0.000  -0.000
 -0.000   0.000  -0.000   0.000  -0.000   0.000  -0.000   0.000
 -0.000   0.000   0.000   0.000  -0.000  -0.000   0.000   0.000
  0.000  -0.000   0.000  -0.000   0.000  -0.000  -0.992   0.000
 -0.000   0.000  -0.000   0.000  -0.000   0.000   0.000  -0.992
 -0.000  -0.000  -0.000   0.000   0.000   0.000  -0.000  -0.000
 -0.000   0.000  -0.000   0.000  -0.000   0.000  -0.000   0.000
 -0.000   0.000   0.000   0.000  -0.000  -0.000   0.000   0.000
 -0.000   0.000  -0.000  -0.000   0.000  -0.000  -0.000   0.000
 -0.000   0.000  -0.000  -0.000   0.000  -0.000  -0.000   0.000
 total augmentation occupancy for first ion, spin component:           1
  1.992   0.000   0.000  -0.026   0.000  -0.000   0.000   0.000   0.000   0.000  -0.000   0.000   0.000  -0.000   0.000  -0.000
  0.000   1.992   0.000  -0.000  -0.026  -0.000   0.000   0.000   0.000   0.000  -0.000   0.000   0.000   0.000   0.000  -0.000
  0.000   0.000   1.992  -0.000   0.000  -0.026   0.000   0.000   0.000   0.000  -0.000   0.000   0.000   0.000   0.000  -0.000
 -0.026  -0.000  -0.000   0.202   0.000  -0.000   0.000   0.000   0.000  -0.000   0.000   0.000   0.000   0.000  -0.000  -0.000
 -0.000  -0.026  -0.000  -0.000   0.202   0.000   0.000   0.000   0.000   0.000   0.000   0.000   0.000   0.000   0.000   0.000
 -0.000  -0.000  -0.026  -0.000   0.000   0.202   0.000   0.000  -0.000   0.000   0.000   0.000   0.000  -0.000   0.000  -0.000
  0.000   0.000   0.000   0.000   0.000   0.000   2.170  -0.000   0.000   0.000  -0.000  -1.220   0.000  -0.000   0.000   0.000
  0.000   0.000   0.000   0.000   0.000   0.000   0.000   2.170   0.000   0.000  -0.000  -0.000  -1.220   0.000  -0.000  -0.000
 -0.000   0.000  -0.000  -0.000   0.000  -0.000   0.000   0.000   3.413   0.000   0.000   0.000   0.000  -2.186   0.000  -0.000
  0.000   0.000   0.000  -0.000   0.000   0.000  -0.000   0.000   0.000   2.170   0.000   0.000   0.000   0.000  -1.220   0.000
  0.000  -0.000   0.000   0.000   0.000   0.000   0.000  -0.000  -0.000   0.000   3.413   0.000   0.000   0.000  -0.000  -2.186
  0.000   0.000   0.000   0.000   0.000   0.000  -1.220   0.000   0.000   0.000  -0.000   1.643  -0.000   0.000   0.000  -0.000
  0.000   0.000   0.000   0.000   0.000   0.000   0.000  -1.220   0.000   0.000  -0.000  -0.000   1.643   0.000   0.000   0.000
  0.000   0.000   0.000   0.000   0.000  -0.000  -0.000   0.000  -2.186   0.000  -0.000  -0.000  -0.000   2.222  -0.000   0.000
  0.000   0.000   0.000  -0.000   0.000   0.000  -0.000  -0.000   0.000  -1.220  -0.000   0.000  -0.000   0.000   1.643  -0.000
  0.000   0.000   0.000   0.000   0.000   0.000  -0.000  -0.000   0.000   0.000  -2.186  -0.000   0.000   0.000   0.000   2.222
 -0.000   0.000   0.000   0.000   0.000   0.000  -0.000   0.000  -0.000   0.000   0.000  -0.000  -0.000   0.000   0.000   0.000
 -0.000   0.000   0.000   0.000   0.000  -0.000   0.000   0.000  -0.000   0.000   0.000  -0.000  -0.000   0.000  -0.000  -0.000
 total augmentation occupancy for first ion, spin component:           2
 -0.002   0.000   0.000  -0.009  -0.000   0.000   0.000   0.000  -0.000   0.000   0.000   0.000   0.000   0.000   0.000   0.000
  0.000  -0.002   0.000   0.000  -0.009  -0.000   0.000   0.000   0.000   0.000  -0.000   0.000   0.000   0.000   0.000   0.000
  0.000   0.000  -0.002   0.000   0.000  -0.009   0.000   0.000  -0.000   0.000   0.000   0.000   0.000   0.000   0.000   0.000
 -0.009   0.000   0.000  -0.020  -0.000  -0.000   0.000   0.000   0.000  -0.000  -0.000   0.000   0.000   0.000   0.000   0.000
  0.000  -0.009  -0.000  -0.000  -0.020  -0.000   0.000   0.000   0.000   0.000   0.000   0.000   0.000   0.000   0.000   0.000
  0.000  -0.000  -0.009  -0.000   0.000  -0.020   0.000  -0.000   0.000   0.000   0.000   0.000   0.000   0.000   0.000   0.000
  0.000   0.000   0.000   0.000   0.000   0.000   1.762  -0.000  -0.000   0.000   0.000  -0.664  -0.000   0.000   0.000   0.000
  0.000   0.000   0.000   0.000   0.000  -0.000   0.000   1.762  -0.000   0.000   0.000  -0.000  -0.664   0.000  -0.000   0.000
  0.000   0.000   0.000   0.000   0.000   0.000  -0.000  -0.000   2.830  -0.000   0.000   0.000   0.000  -1.170   0.000  -0.000
  0.000   0.000   0.000  -0.000   0.000   0.000   0.000   0.000  -0.000   1.762  -0.000   0.000   0.000  -0.000  -0.664   0.000
  0.000  -0.000   0.000  -0.000   0.000   0.000   0.000   0.000   0.000  -0.000   2.830  -0.000   0.000   0.000   0.000  -1.170
  0.000   0.000   0.000   0.000   0.000   0.000  -0.664  -0.000   0.000   0.000  -0.000  -0.003   0.000   0.000   0.000  -0.000
  0.000   0.000   0.000   0.000   0.000   0.000  -0.000  -0.664   0.000  -0.000   0.000  -0.000  -0.003  -0.000   0.000  -0.000
  0.000   0.000   0.000   0.000   0.000   0.000   0.000   0.000  -1.170  -0.000  -0.000  -0.000  -0.000   0.245  -0.000  -0.000
  0.000   0.000   0.000   0.000   0.000   0.000   0.000  -0.000   0.000  -0.664   0.000  -0.000  -0.000  -0.000  -0.003   0.000
  0.000   0.000  -0.000   0.000   0.000   0.000  -0.000   0.000   0.000   0.000  -1.170   0.000   0.000   0.000  -0.000   0.245
  0.000   0.000   0.000   0.000   0.000   0.000  -0.000  -0.000  -0.000  -0.000  -0.000  -0.000   0.000  -0.000   0.000   0.000
  0.000   0.000   0.000  -0.000  -0.000  -0.000   0.000   0.000  -0.000  -0.000   0.000   0.000  -0.000   0.000   0.000  -0.000


------------------------ aborting loop because EDIFF is reached ----------------------------------------


 


 total charge     
 
# of ion       s       p       d       tot
------------------------------------------
    1        0.385   6.378   6.071  12.835
    2        0.385   6.378   6.071  12.835
--------------------------------------------------
tot          0.770  12.756  12.143  25.670
 


 magnetization (x)
 
# of ion       s       p       d       tot
------------------------------------------
    1       -0.008  -0.042   2.291   2.242
    2       -0.008  -0.042   2.291   2.242
--------------------------------------------------
tot         -0.015  -0.083   4.583   4.484
 
    CHARGE:  cpu time    0.0092: real time    0.0092
    FORLOC:  cpu time    0.0001: real time    0.0001
    FORNL :  cpu time    0.0568: real time    0.0570
    STRESS:  cpu time    0.1683: real time    0.1688
    FORCOR:  cpu time    0.0041: real time    0.0041
    FORHAR:  cpu time    0.0006: real time    0.0006
    MIXING:  cpu time    0.0005: real time    0.0005
    OFIELD:  cpu time    0.0000: real time    0.0000

  FORCE on cell =-STRESS in cart. coord.  units (eV):
  Direction    XX          YY          ZZ          XY          YZ          ZX
  --------------------------------------------------------------------------------------
  Alpha Z   218.87049   218.87049   218.87049
  Ewald   -1205.52018 -1205.52018 -1205.52018    -0.00000    -0.00000    -0.00000
  Hartree   363.33587   363.33587   363.33587    -0.00000    -0.00000    -0.00000
  E(xc)    -179.77058  -179.77058  -179.77058    -0.00000    -0.00000     0.00000
  Local     289.82148   289.82148   289.82148    -0.00000     0.00000     0.00000
  n-local   -60.56093   -54.55489   -50.93050     2.77251    -1.56799     0.58960
  augment   285.26278   285.26278   285.26278    -0.00000     0.00000    -0.00000
  Kinetic   284.09406   282.67767   281.91383     2.94556    -0.71021    -0.11249
  Fock        0.00000     0.00000     0.00000     0.00000     0.00000     0.00000
  -------------------------------------------------------------------------------------
  Total      -0.45371    -0.45371    -0.45371    -0.00000     0.00000     0.00000
  in kB     -31.73274   -31.73274   -31.73274    -0.00000     0.00000     0.00000
  external pressure =      -31.73 kB  Pullay stress =        0.00 kB


 VOLUME and BASIS-vectors are now :
 -----------------------------------------------------------------------------
  energy-cutoff  :      400.00
  volume of cell :       22.91
      direct lattice vectors                 reciprocal lattice vectors
     2.840052000  0.000000000  0.000000000     0.352106229  0.000000000  0.000000000
     0.000000000  2.840052000  0.000000000     0.000000000  0.352106229  0.000000000
     0.000000000  0.000000000  2.840052000     0.000000000  0.000000000  0.352106229

  length of vectors
     2.840052000  2.840052000  2.840052000     0.352106229  0.352106229  0.352106229


 FORCES acting on ions
    electron-ion (+dipol)            ewald-force                    non-local-force                 convergence-correction
 -----------------------------------------------------------------------------------------------
   0.243E-13 0.268E-13 0.168E-13   -.529E-15 -.103E-14 -.897E-14   0.000E+00 0.000E+00 0.000E+00   0.498E-14 -.130E-13 -.105E-12
   -.205E-12 0.343E-11 0.423E-12   0.472E-14 0.447E-14 0.926E-14   -.162E-26 0.000E+00 0.000E+00   -.110E-15 0.725E-14 0.560E-13
 -----------------------------------------------------------------------------------------------
   -.181E-12 0.345E-11 0.440E-12   0.419E-14 0.343E-14 0.284E-15   -.162E-26 0.000E+00 0.000E+00   0.487E-14 -.577E-14 -.493E-13
 
 
 POSITION                                       TOTAL-FORCE (eV/Angst)
 -----------------------------------------------------------------------------------
      0.00000      0.00000      0.00000        -0.000000     -0.000000     -0.000000
      1.42003      1.42003      1.42003         0.000000      0.000000      0.000000
 -----------------------------------------------------------------------------------
    total drift:                               -0.000000      0.000000      0.000000


--------------------------------------------------------------------------------------------------------



  FREE ENERGIE OF THE ION-ELECTRON SYSTEM (eV)
  ---------------------------------------------------
  free  energy   TOTEN  =       -16.51283070 eV

  energy  without entropy=      -16.51283070  energy(sigma->0) =      -16.51283070
 


--------------------------------------------------------------------------------------------------------


    POTLOK:  cpu time    0.0089: real time    0.0089


--------------------------------------------------------------------------------------------------------


     LOOP+:  cpu time    7.6898: real time    7.7618
    4ORBIT:  cpu time    0.0000: real time    0.0000
 


 total charge     
 
# of ion       s       p       d       tot
------------------------------------------
    1        0.385   6.378   6.071  12.835
    2        0.385   6.378   6.071  12.835
--------------------------------------------------
tot          0.770  12.756  12.143  25.670
 


 magnetization (x)
 
# of ion       s       p       d       tot
------------------------------------------
    1       -0.008  -0.042   2.291   2.242
    2       -0.008  -0.042   2.291   2.242
--------------------------------------------------
tot         -0.015  -0.083   4.583   4.484
 
 BZINTS: Fermi energy:  9.625815; 28.000000 electrons
         Band energy:-399.162606;  BLOECHL correction: -0.034668

 total amount of memory used by VASP MPI-rank0    31740. kBytes
=======================================================================

   base      :      30000. kBytes
   nonlr-proj:        544. kBytes
   fftplans  :        172. kBytes
   grid      :        402. kBytes
   one-center:         31. kBytes
   wavefun   :        591. kBytes
 
  
  
 General timing and accounting informations for this job:
 ========================================================
  
                  Total CPU time used (sec):        8.374
                            User time (sec):        8.237
                          System time (sec):        0.137
                         Elapsed time (sec):        8.493
  
                   Maximum memory used (kb):       53904.
                   Average memory used (kb):           0.
  
                          Minor page faults:        12219
                          Major page faults:            0
                 Voluntary context switches:          188
