<?xml version="1.0" encoding="ISO-8859-1"?>
<modeling>
 <generator>
  <i name="program" type="string">vasp </i>
  <i name="version" type="string">5.4.4.18Apr17-6-g9f103f2a35  </i>
  <i name="subversion" type="string">(build Apr 28 2018 00:24:27) complex            parallel </i>
  <i name="platform" type="string">LinuxIFC </i>
  <i name="date" type="string">2021 09 07 </i>
  <i name="time" type="string">01:11:22 </i>
 </generator>
 <incar>
  <i type="string" name="PREC">accurate</i>
  <i type="string" name="ALGO"> Normal</i>
  <i type="int" name="ISPIN">     2</i>
  <i type="int" name="NELM">   100</i>
  <i type="int" name="IBRION">    -1</i>
  <i name="EDIFF">      0.00000010</i>
  <i type="int" name="NSW">     0</i>
  <i type="int" name="ISIF">     3</i>
  <i name="ENCUT">    400.00000000</i>
  <v name="MAGMOM">      5.00000000      5.00000000</v>
  <i type="string" name="LREAL"> Auto</i>
  <i type="int" name="ISMEAR">    -5</i>
  <i name="SIGMA">      0.05000000</i>
  <i type="logical" name="LWAVE"> F  </i>
  <i type="logical" name="LCHARG"> F  </i>
  <i type="logical" name="LVHAR"> F  </i>
  <i type="int" name="LORBIT">    11</i>
  <i type="logical" name="LASPH"> F  </i>
  <i type="logical" name="LAECHG"> F  </i>
  <v type="int" name="KPOINT_BSE">    -1     0     0     0</v>
  <i type="int" name="NELM">   100</i>
  <i type="logical" name="LASPH"> F  </i>
  <i type="int" name="LMAXTAU">     0</i>
 </incar>
 <structure name="primitive_cell" >
  <crystal>
   <varray name="basis" >
    <v>       1.42002600       1.42002600       1.42002600 </v>
    <v>       1.42002600      -1.42002600      -1.42002600 </v>
    <v>      -1.42002600       1.42002600      -1.42002600 </v>
   </varray>
   <i name="volume">     11.45378113 </i>
   <varray name="rec_basis" >
    <v>       0.35210623       0.35210623       0.00000000 </v>
    <v>       0.35210623       0.00000000      -0.35210623 </v>
    <v>       0.00000000       0.35210623      -0.35210623 </v>
   </varray>
  </crystal>
  <varray name="positions" >
   <v>       0.00000000       0.00000000       0.00000000 </v>
  </varray>
 </structure>
 <varray name="primitive_index" >
  <v type="int" >        1 </v>
 </varray>
 <kpoints>
  <generation param="Monkhorst-Pack">
   <v type="int" name="divisions">      10       10       10 </v>
   <v name="usershift">      0.00000000       0.00000000       0.00000000 </v>
   <v name="genvec1">      0.10000000       0.00000000       0.00000000 </v>
   <v name="genvec2">      0.00000000       0.10000000       0.00000000 </v>
   <v name="genvec3">      0.00000000       0.00000000       0.10000000 </v>
   <v name="shift">      0.50000000       0.50000000       0.50000000 </v>
  </generation>
  <varray name="kpointlist" >
   <v>       0.05000000       0.05000000       0.05000000 </v>
   <v>       0.15000000       0.05000000       0.05000000 </v>
   <v>       0.25000000       0.05000000       0.05000000 </v>
   <v>       0.35000000       0.05000000       0.05000000 </v>
   <v>       0.45000000       0.05000000       0.05000000 </v>
   <v>       0.15000000       0.15000000       0.05000000 </v>
   <v>       0.25000000       0.15000000       0.05000000 </v>
   <v>       0.35000000       0.15000000       0.05000000 </v>
   <v>       0.45000000       0.15000000       0.05000000 </v>
   <v>       0.25000000       0.25000000       0.05000000 </v>
   <v>       0.35000000       0.25000000       0.05000000 </v>
   <v>       0.45000000       0.25000000       0.05000000 </v>
   <v>       0.35000000       0.35000000       0.05000000 </v>
   <v>       0.45000000       0.35000000       0.05000000 </v>
   <v>       0.45000000       0.45000000       0.05000000 </v>
   <v>       0.15000000       0.15000000       0.15000000 </v>
   <v>       0.25000000       0.15000000       0.15000000 </v>
   <v>       0.35000000       0.15000000       0.15000000 </v>
   <v>       0.45000000       0.15000000       0.15000000 </v>
   <v>       0.25000000       0.25000000       0.15000000 </v>
   <v>       0.35000000       0.25000000       0.15000000 </v>
   <v>       0.45000000       0.25000000       0.15000000 </v>
   <v>       0.35000000       0.35000000       0.15000000 </v>
   <v>       0.45000000       0.35000000       0.15000000 </v>
   <v>       0.45000000       0.45000000       0.15000000 </v>
   <v>       0.25000000       0.25000000       0.25000000 </v>
   <v>       0.35000000       0.25000000       0.25000000 </v>
   <v>       0.45000000       0.25000000       0.25000000 </v>
   <v>       0.35000000       0.35000000       0.25000000 </v>
   <v>       0.45000000       0.35000000       0.25000000 </v>
   <v>       0.45000000       0.45000000       0.25000000 </v>
   <v>       0.35000000       0.35000000       0.35000000 </v>
   <v>       0.45000000       0.35000000       0.35000000 </v>
   <v>       0.45000000       0.45000000       0.35000000 </v>
   <v>       0.45000000       0.45000000       0.45000000 </v>
  </varray>
  <varray name="weights" >
   <v>       0.00800000 </v>
   <v>       0.02400000 </v>
   <v>       0.02400000 </v>
   <v>       0.02400000 </v>
   <v>       0.02400000 </v>
   <v>       0.02400000 </v>
   <v>       0.04800000 </v>
   <v>       0.04800000 </v>
   <v>       0.04800000 </v>
   <v>       0.02400000 </v>
   <v>       0.04800000 </v>
   <v>       0.04800000 </v>
   <v>       0.02400000 </v>
   <v>       0.04800000 </v>
   <v>       0.02400000 </v>
   <v>       0.00800000 </v>
   <v>       0.02400000 </v>
   <v>       0.02400000 </v>
   <v>       0.02400000 </v>
   <v>       0.02400000 </v>
   <v>       0.04800000 </v>
   <v>       0.04800000 </v>
   <v>       0.02400000 </v>
   <v>       0.04800000 </v>
   <v>       0.02400000 </v>
   <v>       0.00800000 </v>
   <v>       0.02400000 </v>
   <v>       0.02400000 </v>
   <v>       0.02400000 </v>
   <v>       0.04800000 </v>
   <v>       0.02400000 </v>
   <v>       0.00800000 </v>
   <v>       0.02400000 </v>
   <v>       0.02400000 </v>
   <v>       0.00800000 </v>
  </varray>
  <varray name="tetrahedronlist"  type="int" >
   <v type="int" >       24        1        2        2        6 </v>
   <v type="int" >       18        2        2        6        6 </v>
   <v type="int" >       12        2        6        6       16 </v>
   <v type="int" >       12        2        3        6        7 </v>
   <v type="int" >       24        2        6        6        7 </v>
   <v type="int" >       12        6        6        7       16 </v>
   <v type="int" >       24        3        6        7        7 </v>
   <v type="int" >       24        6        7        7       17 </v>
   <v type="int" >       24        6        7       16       17 </v>
   <v type="int" >       12        3        4        7        8 </v>
   <v type="int" >       24        3        7        7        8 </v>
   <v type="int" >       12        7        7        8       17 </v>
   <v type="int" >       24        4        7        8        8 </v>
   <v type="int" >       12        7        8        8       18 </v>
   <v type="int" >       12        7        8       17       18 </v>
   <v type="int" >       12        4        5        8        9 </v>
   <v type="int" >       24        4        8        8        9 </v>
   <v type="int" >       12        8        8        9       18 </v>
   <v type="int" >       24        5        8        9        9 </v>
   <v type="int" >       12        8        9        9       19 </v>
   <v type="int" >       12        8        9       18       19 </v>
   <v type="int" >       30        5        5        9        9 </v>
   <v type="int" >       36        5        9        9        9 </v>
   <v type="int" >       12        9        9        9       19 </v>
   <v type="int" >        6        9        9       19       19 </v>
   <v type="int" >       18        1        1        2        2 </v>
   <v type="int" >       24        1        2        2        2 </v>
   <v type="int" >       12        2        2        2        6 </v>
   <v type="int" >       12        6        7       10       16 </v>
   <v type="int" >       12        7       10       16       17 </v>
   <v type="int" >       12       10       16       17       20 </v>
   <v type="int" >       12        7        8       11       17 </v>
   <v type="int" >       12        7       10       11       17 </v>
   <v type="int" >       12       10       11       17       20 </v>
   <v type="int" >       12        8       11       17       18 </v>
   <v type="int" >       12       11       17       18       21 </v>
   <v type="int" >       12       11       17       20       21 </v>
   <v type="int" >       12        8        9       12       18 </v>
   <v type="int" >       12        8       11       12       18 </v>
   <v type="int" >       12       11       12       18       21 </v>
   <v type="int" >       12        9       12       18       19 </v>
   <v type="int" >       12       12       18       19       22 </v>
   <v type="int" >       12       12       18       21       22 </v>
   <v type="int" >       12        9        9       12       19 </v>
   <v type="int" >       12        9       12       12       19 </v>
   <v type="int" >       12       12       12       19       22 </v>
   <v type="int" >       12        9       12       19       19 </v>
   <v type="int" >       12       12       19       19       22 </v>
   <v type="int" >       12       12       19       22       22 </v>
   <v type="int" >       12        8        9       11       19 </v>
   <v type="int" >       12        9       11       12       19 </v>
   <v type="int" >       12       11       12       19       22 </v>
   <v type="int" >       12        8       11       18       19 </v>
   <v type="int" >       12       11       18       19       21 </v>
   <v type="int" >       12       11       19       21       22 </v>
   <v type="int" >       12        7        8       10       18 </v>
   <v type="int" >       12        8       10       11       18 </v>
   <v type="int" >       12       10       11       18       21 </v>
   <v type="int" >       12        7       10       17       18 </v>
   <v type="int" >       12       10       17       18       20 </v>
   <v type="int" >       12       10       18       20       21 </v>
   <v type="int" >       12        7        7       10       17 </v>
   <v type="int" >       12        7       10       17       20 </v>
   <v type="int" >       12        7       16       17       17 </v>
   <v type="int" >       12        7       17       17       20 </v>
   <v type="int" >       12        2        3        6       16 </v>
   <v type="int" >       12        3        6        7       16 </v>
   <v type="int" >       12        3        7       16       17 </v>
   <v type="int" >       12        2        2        3        6 </v>
   <v type="int" >       12        2        3        3        6 </v>
   <v type="int" >       12        3        3        6        7 </v>
   <v type="int" >       12        2        3        6        6 </v>
   <v type="int" >       12        3        6        6        7 </v>
   <v type="int" >       12       10       11       13       20 </v>
   <v type="int" >       12       11       13       20       21 </v>
   <v type="int" >       12       13       20       21       23 </v>
   <v type="int" >       12       11       12       14       21 </v>
   <v type="int" >       12       11       13       14       21 </v>
   <v type="int" >       12       13       14       21       23 </v>
   <v type="int" >       12       12       14       21       22 </v>
   <v type="int" >       12       14       21       22       24 </v>
   <v type="int" >       12       14       21       23       24 </v>
   <v type="int" >       12       12       12       14       22 </v>
   <v type="int" >       12       12       14       14       22 </v>
   <v type="int" >       12       14       14       22       24 </v>
   <v type="int" >       12       12       14       22       22 </v>
   <v type="int" >       12       14       22       22       24 </v>
   <v type="int" >       12       14       22       24       24 </v>
   <v type="int" >       12       11       12       13       22 </v>
   <v type="int" >       12       12       13       14       22 </v>
   <v type="int" >       12       13       14       22       24 </v>
   <v type="int" >       12       11       13       21       22 </v>
   <v type="int" >       12       13       21       22       23 </v>
   <v type="int" >       12       13       22       23       24 </v>
   <v type="int" >       12       10       11       11       21 </v>
   <v type="int" >       12       11       11       13       21 </v>
   <v type="int" >       12       11       13       21       23 </v>
   <v type="int" >       12       10       11       20       21 </v>
   <v type="int" >       12       11       20       21       21 </v>
   <v type="int" >       12       11       21       21       23 </v>
   <v type="int" >       12        7        8       10       20 </v>
   <v type="int" >       12        8       10       11       20 </v>
   <v type="int" >       12        8       11       20       21 </v>
   <v type="int" >       12        7        8       17       20 </v>
   <v type="int" >       12        8       17       18       20 </v>
   <v type="int" >       12        8       18       20       21 </v>
   <v type="int" >       12        3        4        7       17 </v>
   <v type="int" >       12        4        7        8       17 </v>
   <v type="int" >       12        4        8       17       18 </v>
   <v type="int" >       12        3        3        4        7 </v>
   <v type="int" >       12        3        4        4        7 </v>
   <v type="int" >       12        4        4        7        8 </v>
   <v type="int" >       12        3        4        7        7 </v>
   <v type="int" >       12        4        7        7        8 </v>
   <v type="int" >       12       13       14       15       23 </v>
   <v type="int" >       12       14       15       23       24 </v>
   <v type="int" >       12       15       23       24       25 </v>
   <v type="int" >       24       14       14       15       24 </v>
   <v type="int" >       12       14       15       15       24 </v>
   <v type="int" >       12       15       15       24       25 </v>
   <v type="int" >       12       14       15       24       24 </v>
   <v type="int" >       12       15       24       24       25 </v>
   <v type="int" >       12       15       24       25       25 </v>
   <v type="int" >       12       13       14       14       24 </v>
   <v type="int" >       12       14       15       24       25 </v>
   <v type="int" >       12       13       14       23       24 </v>
   <v type="int" >       12       14       23       24       24 </v>
   <v type="int" >       24       14       24       24       25 </v>
   <v type="int" >       12       11       12       13       23 </v>
   <v type="int" >       12       12       13       14       23 </v>
   <v type="int" >       12       12       14       23       24 </v>
   <v type="int" >       12       11       12       21       23 </v>
   <v type="int" >       12       12       21       22       23 </v>
   <v type="int" >       12       12       22       23       24 </v>
   <v type="int" >       12        8        9       11       21 </v>
   <v type="int" >       12        9       11       12       21 </v>
   <v type="int" >       12        9       12       21       22 </v>
   <v type="int" >       12        8        9       18       21 </v>
   <v type="int" >       12        9       18       19       21 </v>
   <v type="int" >       12        9       19       21       22 </v>
   <v type="int" >       12        4        5        8       18 </v>
   <v type="int" >       12        5        8        9       18 </v>
   <v type="int" >       12        5        9       18       19 </v>
   <v type="int" >       12        4        4        5        8 </v>
   <v type="int" >       12        4        5        5        8 </v>
   <v type="int" >       12        5        5        8        9 </v>
   <v type="int" >       12        4        5        8        8 </v>
   <v type="int" >       12        5        8        8        9 </v>
   <v type="int" >       12       15       15       15       25 </v>
   <v type="int" >       12       15       15       25       25 </v>
   <v type="int" >       12       15       25       25       25 </v>
   <v type="int" >       12       14       14       15       25 </v>
   <v type="int" >       12       14       15       15       25 </v>
   <v type="int" >       12       14       15       25       25 </v>
   <v type="int" >       12       14       14       24       25 </v>
   <v type="int" >       12       14       24       25       25 </v>
   <v type="int" >       12       12       12       14       24 </v>
   <v type="int" >       12       12       14       14       24 </v>
   <v type="int" >       12       12       14       24       24 </v>
   <v type="int" >       12       12       12       22       24 </v>
   <v type="int" >       12       12       22       22       24 </v>
   <v type="int" >       12       12       22       24       24 </v>
   <v type="int" >       12        9        9       12       22 </v>
   <v type="int" >       12        9       12       12       22 </v>
   <v type="int" >       12        9       12       22       22 </v>
   <v type="int" >       12        9        9       19       22 </v>
   <v type="int" >       12        9       19       19       22 </v>
   <v type="int" >       12        9       19       22       22 </v>
   <v type="int" >       12        5        5        9       19 </v>
   <v type="int" >       12        5        9        9       19 </v>
   <v type="int" >       12        5        9       19       19 </v>
   <v type="int" >       24        5        5        5        9 </v>
   <v type="int" >       12       13       14       15       25 </v>
   <v type="int" >       12       13       14       24       25 </v>
   <v type="int" >       12       13       23       24       25 </v>
   <v type="int" >       12       11       12       14       24 </v>
   <v type="int" >       12       11       13       14       24 </v>
   <v type="int" >       12       11       13       23       24 </v>
   <v type="int" >       12       11       12       22       24 </v>
   <v type="int" >       12       11       21       22       24 </v>
   <v type="int" >       12       11       21       23       24 </v>
   <v type="int" >       12        8        9       12       22 </v>
   <v type="int" >       12        8       11       12       22 </v>
   <v type="int" >       12        8       11       21       22 </v>
   <v type="int" >       12        8        9       19       22 </v>
   <v type="int" >       12        8       18       19       22 </v>
   <v type="int" >       12        8       18       21       22 </v>
   <v type="int" >       12        4        5        9       19 </v>
   <v type="int" >       12        4        8        9       19 </v>
   <v type="int" >       12        4        8       18       19 </v>
   <v type="int" >       12        4        5        5        9 </v>
   <v type="int" >       12        4        4        5        9 </v>
   <v type="int" >       12        4        4        8        9 </v>
   <v type="int" >       12        4        5        9        9 </v>
   <v type="int" >       12        4        8        9        9 </v>
   <v type="int" >       12       10       11       13       23 </v>
   <v type="int" >       12       10       11       21       23 </v>
   <v type="int" >       12       10       20       21       23 </v>
   <v type="int" >       12        7        8       11       21 </v>
   <v type="int" >       12        7       10       11       21 </v>
   <v type="int" >       12        7       10       20       21 </v>
   <v type="int" >       12        7        8       18       21 </v>
   <v type="int" >       12        7       17       18       21 </v>
   <v type="int" >       12        7       17       20       21 </v>
   <v type="int" >       12        3        4        8       18 </v>
   <v type="int" >       12        3        7        8       18 </v>
   <v type="int" >       12        3        7       17       18 </v>
   <v type="int" >       12        3        4        4        8 </v>
   <v type="int" >       12        3        3        4        8 </v>
   <v type="int" >       12        3        3        7        8 </v>
   <v type="int" >       12        3        4        8        8 </v>
   <v type="int" >       12        3        7        8        8 </v>
   <v type="int" >       12        6        7       10       20 </v>
   <v type="int" >       12        6        7       17       20 </v>
   <v type="int" >       12        6       16       17       20 </v>
   <v type="int" >       12        2        3        7       17 </v>
   <v type="int" >       12        2        6        7       17 </v>
   <v type="int" >       12        2        6       16       17 </v>
   <v type="int" >       12        2        3        3        7 </v>
   <v type="int" >       12        2        2        3        7 </v>
   <v type="int" >       12        2        2        6        7 </v>
   <v type="int" >       12        2        3        7        7 </v>
   <v type="int" >       12        2        6        7        7 </v>
   <v type="int" >       12        1        2        6       16 </v>
   <v type="int" >       12        1        1        2        6 </v>
   <v type="int" >       12        1        2        6        6 </v>
   <v type="int" >       12        1        1        1        2 </v>
   <v type="int" >       12       16       17       17       20 </v>
   <v type="int" >       12       17       17       20       20 </v>
   <v type="int" >       12       17       20       20       26 </v>
   <v type="int" >       12       17       18       20       21 </v>
   <v type="int" >       12       17       20       20       21 </v>
   <v type="int" >       12       20       20       21       26 </v>
   <v type="int" >       12       18       20       21       21 </v>
   <v type="int" >       24       20       21       21       27 </v>
   <v type="int" >       24       20       21       26       27 </v>
   <v type="int" >       12       18       19       21       22 </v>
   <v type="int" >       12       18       21       21       22 </v>
   <v type="int" >       12       21       21       22       27 </v>
   <v type="int" >       12       19       21       22       22 </v>
   <v type="int" >       12       21       22       22       28 </v>
   <v type="int" >       12       21       22       27       28 </v>
   <v type="int" >        6       19       19       22       22 </v>
   <v type="int" >       12       19       22       22       22 </v>
   <v type="int" >       12       22       22       22       28 </v>
   <v type="int" >        6       22       22       28       28 </v>
   <v type="int" >        6        6        6        7        7 </v>
   <v type="int" >       12        6        7        7        7 </v>
   <v type="int" >       12        7        7        7       10 </v>
   <v type="int" >        6        7        7       10       10 </v>
   <v type="int" >       12       20       21       23       26 </v>
   <v type="int" >       12       21       23       26       27 </v>
   <v type="int" >       12       23       26       27       29 </v>
   <v type="int" >       12       21       22       24       27 </v>
   <v type="int" >       12       21       23       24       27 </v>
   <v type="int" >       12       23       24       27       29 </v>
   <v type="int" >       12       22       24       27       28 </v>
   <v type="int" >       12       24       27       28       30 </v>
   <v type="int" >       12       24       27       29       30 </v>
   <v type="int" >       12       22       22       24       28 </v>
   <v type="int" >       12       22       24       24       28 </v>
   <v type="int" >       12       24       24       28       30 </v>
   <v type="int" >       12       22       24       28       28 </v>
   <v type="int" >       12       24       28       28       30 </v>
   <v type="int" >       12       24       28       30       30 </v>
   <v type="int" >       12       21       22       23       28 </v>
   <v type="int" >       12       22       23       24       28 </v>
   <v type="int" >       12       23       24       28       30 </v>
   <v type="int" >       12       21       23       27       28 </v>
   <v type="int" >       12       23       27       28       29 </v>
   <v type="int" >       12       23       28       29       30 </v>
   <v type="int" >       12       21       21       23       27 </v>
   <v type="int" >       12       21       23       27       29 </v>
   <v type="int" >       12       21       26       27       27 </v>
   <v type="int" >       12       21       27       27       29 </v>
   <v type="int" >       12       17       18       20       26 </v>
   <v type="int" >       12       18       20       21       26 </v>
   <v type="int" >       12       18       21       26       27 </v>
   <v type="int" >       12        7        7        8       10 </v>
   <v type="int" >       12        7        8        8       10 </v>
   <v type="int" >       12        8        8       10       11 </v>
   <v type="int" >       12        7        8       10       10 </v>
   <v type="int" >       12        8       10       10       11 </v>
   <v type="int" >       12        8       10       11       11 </v>
   <v type="int" >       12       23       24       25       29 </v>
   <v type="int" >       12       24       25       29       30 </v>
   <v type="int" >       12       25       29       30       31 </v>
   <v type="int" >       24       24       24       25       30 </v>
   <v type="int" >       12       24       25       25       30 </v>
   <v type="int" >       12       25       25       30       31 </v>
   <v type="int" >       12       24       25       30       30 </v>
   <v type="int" >       12       25       30       30       31 </v>
   <v type="int" >       12       25       30       31       31 </v>
   <v type="int" >       12       23       24       24       30 </v>
   <v type="int" >       12       24       25       30       31 </v>
   <v type="int" >       12       23       24       29       30 </v>
   <v type="int" >       12       24       29       30       30 </v>
   <v type="int" >       24       24       30       30       31 </v>
   <v type="int" >       12       21       22       23       29 </v>
   <v type="int" >       12       22       23       24       29 </v>
   <v type="int" >       12       22       24       29       30 </v>
   <v type="int" >       12       21       22       27       29 </v>
   <v type="int" >       12       22       27       28       29 </v>
   <v type="int" >       12       22       28       29       30 </v>
   <v type="int" >       12       18       19       21       27 </v>
   <v type="int" >       12       19       21       22       27 </v>
   <v type="int" >       12       19       22       27       28 </v>
   <v type="int" >       12        8        8        9       11 </v>
   <v type="int" >       12        8        9        9       11 </v>
   <v type="int" >       12        9        9       11       12 </v>
   <v type="int" >       12        8        9       11       11 </v>
   <v type="int" >       12        9       11       11       12 </v>
   <v type="int" >       12        9       11       12       12 </v>
   <v type="int" >       12       25       25       25       31 </v>
   <v type="int" >       12       25       25       31       31 </v>
   <v type="int" >       12       25       31       31       31 </v>
   <v type="int" >       12       24       24       25       31 </v>
   <v type="int" >       12       24       25       25       31 </v>
   <v type="int" >       12       24       25       31       31 </v>
   <v type="int" >       12       24       24       30       31 </v>
   <v type="int" >       12       24       30       31       31 </v>
   <v type="int" >       12       22       22       24       30 </v>
   <v type="int" >       12       22       24       24       30 </v>
   <v type="int" >       12       22       24       30       30 </v>
   <v type="int" >       12       22       22       28       30 </v>
   <v type="int" >       12       22       28       28       30 </v>
   <v type="int" >       12       22       28       30       30 </v>
   <v type="int" >       12       19       19       22       28 </v>
   <v type="int" >       12       19       22       22       28 </v>
   <v type="int" >       12       19       22       28       28 </v>
   <v type="int" >       24        9        9        9       12 </v>
   <v type="int" >       24        9        9       12       12 </v>
   <v type="int" >       24        9       12       12       12 </v>
   <v type="int" >       12       23       24       25       31 </v>
   <v type="int" >       12       23       24       30       31 </v>
   <v type="int" >       12       23       29       30       31 </v>
   <v type="int" >       12       21       22       24       30 </v>
   <v type="int" >       12       21       23       24       30 </v>
   <v type="int" >       12       21       23       29       30 </v>
   <v type="int" >       12       21       22       28       30 </v>
   <v type="int" >       12       21       27       28       30 </v>
   <v type="int" >       12       21       27       29       30 </v>
   <v type="int" >       12       18       19       22       28 </v>
   <v type="int" >       12       18       21       22       28 </v>
   <v type="int" >       12       18       21       27       28 </v>
   <v type="int" >       12        8        9        9       12 </v>
   <v type="int" >       12        8        8        9       12 </v>
   <v type="int" >       12        8        8       11       12 </v>
   <v type="int" >       12        8        9       12       12 </v>
   <v type="int" >       12        8       11       12       12 </v>
   <v type="int" >       12        8       11       11       12 </v>
   <v type="int" >       12       20       21       23       29 </v>
   <v type="int" >       12       20       21       27       29 </v>
   <v type="int" >       12       20       26       27       29 </v>
   <v type="int" >       12       17       18       21       27 </v>
   <v type="int" >       12       17       20       21       27 </v>
   <v type="int" >       12       17       20       26       27 </v>
   <v type="int" >       12        7        8        8       11 </v>
   <v type="int" >       12        7        7        8       11 </v>
   <v type="int" >       12        7        7       10       11 </v>
   <v type="int" >       12        7        8       11       11 </v>
   <v type="int" >       12        7       10       11       11 </v>
   <v type="int" >       12        7       10       10       11 </v>
   <v type="int" >       12       16       17       20       26 </v>
   <v type="int" >       12        6        7        7       10 </v>
   <v type="int" >       12        6        6        7       10 </v>
   <v type="int" >       12        6        7       10       10 </v>
   <v type="int" >       12        2        2        2        3 </v>
   <v type="int" >       12        2        2        3        3 </v>
   <v type="int" >       12        2        3        3        3 </v>
   <v type="int" >       12       26       27       27       29 </v>
   <v type="int" >       12       27       27       29       29 </v>
   <v type="int" >       12       27       29       29       32 </v>
   <v type="int" >       12       27       28       29       30 </v>
   <v type="int" >       12       27       29       29       30 </v>
   <v type="int" >       12       29       29       30       32 </v>
   <v type="int" >       12       28       29       30       30 </v>
   <v type="int" >       24       29       30       30       33 </v>
   <v type="int" >       24       29       30       32       33 </v>
   <v type="int" >        6       28       28       30       30 </v>
   <v type="int" >       12       28       30       30       30 </v>
   <v type="int" >       12       30       30       30       33 </v>
   <v type="int" >        6       30       30       33       33 </v>
   <v type="int" >        6       10       10       11       11 </v>
   <v type="int" >       12       10       11       11       11 </v>
   <v type="int" >       12       11       11       11       13 </v>
   <v type="int" >        6       11       11       13       13 </v>
   <v type="int" >       12       29       30       31       32 </v>
   <v type="int" >       12       30       31       32       33 </v>
   <v type="int" >       12       31       32       33       34 </v>
   <v type="int" >       24       30       30       31       33 </v>
   <v type="int" >       12       30       31       31       33 </v>
   <v type="int" >       12       31       31       33       34 </v>
   <v type="int" >       12       30       31       33       33 </v>
   <v type="int" >       12       31       33       33       34 </v>
   <v type="int" >       12       31       33       34       34 </v>
   <v type="int" >       12       30       31       33       34 </v>
   <v type="int" >       12       30       32       33       33 </v>
   <v type="int" >       24       30       33       33       34 </v>
   <v type="int" >       12       27       28       29       32 </v>
   <v type="int" >       12       28       29       30       32 </v>
   <v type="int" >       12       28       30       32       33 </v>
   <v type="int" >       12       11       11       12       13 </v>
   <v type="int" >       12       11       12       12       13 </v>
   <v type="int" >       12       12       12       13       14 </v>
   <v type="int" >       12       11       12       13       13 </v>
   <v type="int" >       12       12       13       13       14 </v>
   <v type="int" >       12       12       13       14       14 </v>
   <v type="int" >       12       31       31       31       34 </v>
   <v type="int" >       12       31       31       34       34 </v>
   <v type="int" >       12       31       34       34       34 </v>
   <v type="int" >       12       30       30       31       34 </v>
   <v type="int" >       12       30       31       31       34 </v>
   <v type="int" >       12       30       31       34       34 </v>
   <v type="int" >       12       30       30       33       34 </v>
   <v type="int" >       12       30       33       34       34 </v>
   <v type="int" >       12       28       28       30       33 </v>
   <v type="int" >       12       28       30       30       33 </v>
   <v type="int" >       12       28       30       33       33 </v>
   <v type="int" >       24       12       12       12       14 </v>
   <v type="int" >       24       12       12       14       14 </v>
   <v type="int" >       24       12       14       14       14 </v>
   <v type="int" >       12       29       30       31       34 </v>
   <v type="int" >       12       29       30       33       34 </v>
   <v type="int" >       12       29       32       33       34 </v>
   <v type="int" >       12       27       28       30       33 </v>
   <v type="int" >       12       27       29       30       33 </v>
   <v type="int" >       12       27       29       32       33 </v>
   <v type="int" >       12       11       12       12       14 </v>
   <v type="int" >       12       11       11       12       14 </v>
   <v type="int" >       12       11       11       13       14 </v>
   <v type="int" >       12       11       12       14       14 </v>
   <v type="int" >       12       11       13       14       14 </v>
   <v type="int" >       12       11       13       13       14 </v>
   <v type="int" >       12       26       27       29       32 </v>
   <v type="int" >       12       10       11       11       13 </v>
   <v type="int" >       12       10       10       11       13 </v>
   <v type="int" >       12       10       11       13       13 </v>
   <v type="int" >       12        3        3        3        4 </v>
   <v type="int" >       12        3        3        4        4 </v>
   <v type="int" >       12        3        4        4        4 </v>
   <v type="int" >       12       32       33       33       34 </v>
   <v type="int" >       18       33       33       34       34 </v>
   <v type="int" >       24       33       34       34       35 </v>
   <v type="int" >       12       33       34       34       34 </v>
   <v type="int" >       24       34       34       34       35 </v>
   <v type="int" >       18       34       34       35       35 </v>
   <v type="int" >        6       13       13       14       14 </v>
   <v type="int" >       12       13       14       14       14 </v>
   <v type="int" >       36       14       14       14       15 </v>
   <v type="int" >       30       14       14       15       15 </v>
   <v type="int" >       12       34       35       35       35 </v>
   <v type="int" >       12       33       33       34       35 </v>
   <v type="int" >       12       33       34       35       35 </v>
   <v type="int" >       24       14       15       15       15 </v>
   <v type="int" >       12       32       33       34       35 </v>
   <v type="int" >       12       13       14       14       15 </v>
   <v type="int" >       12       13       13       14       15 </v>
   <v type="int" >       12       13       14       15       15 </v>
   <v type="int" >       12        4        4        4        5 </v>
   <v type="int" >       12        4        4        5        5 </v>
   <v type="int" >       12        4        5        5        5 </v>
   <v type="int" >        6       35       35       35       35 </v>
   <v type="int" >       18       15       15       15       15 </v>
   <v type="int" >       18        5        5        5        5 </v>
   <v type="int" >        6        1        1        1        1 </v>
  </varray>
  <i name="volumeweight">      0.00016667 </i>
 </kpoints>
 <parameters>
  <separator name="general" >
   <i type="string" name="SYSTEM">unknown system</i>
   <i type="logical" name="LCOMPAT"> F  </i>
  </separator>
  <separator name="electronic" >
   <i type="string" name="PREC">accura</i>
   <i name="ENMAX">    400.00000000</i>
   <i name="ENAUG">    578.34200000</i>
   <i name="EDIFF">      0.00000010</i>
   <i type="int" name="IALGO">    38</i>
   <i type="int" name="IWAVPR">    10</i>
   <i type="int" name="NBANDS">    24</i>
   <i name="NELECT">     28.00000000</i>
   <i type="int" name="TURBO">     0</i>
   <i type="int" name="IRESTART">     0</i>
   <i type="int" name="NREBOOT">     0</i>
   <i type="int" name="NMIN">     0</i>
   <i name="EREF">      0.00000000</i>
   <separator name="electronic smearing" >
    <i type="int" name="ISMEAR">    -5</i>
    <i name="SIGMA">      0.05000000</i>
    <i name="KSPACING">      0.50000000</i>
    <i type="logical" name="KGAMMA"> T  </i>
   </separator>
   <separator name="electronic projectors" >
    <i type="logical" name="LREAL"> T  </i>
    <v name="ROPT">     -0.00025000</v>
    <i type="int" name="LMAXPAW">  -100</i>
    <i type="int" name="LMAXMIX">     2</i>
    <i type="logical" name="NLSPLINE"> F  </i>
   </separator>
   <separator name="electronic startup" >
    <i type="int" name="ISTART">     0</i>
    <i type="int" name="ICHARG">     2</i>
    <i type="int" name="INIWAV">     1</i>
   </separator>
   <separator name="electronic spin" >
    <i type="int" name="ISPIN">     2</i>
    <i type="logical" name="LNONCOLLINEAR"> F  </i>
    <v name="MAGMOM">      5.00000000      5.00000000</v>
    <i name="NUPDOWN">     -1.00000000</i>
    <i type="logical" name="LSORBIT"> F  </i>
    <v name="SAXIS">      0.00000000      0.00000000      1.00000000</v>
    <i type="logical" name="LSPIRAL"> F  </i>
    <v name="QSPIRAL">      0.00000000      0.00000000      0.00000000</v>
    <i type="logical" name="LZEROZ"> F  </i>
   </separator>
   <separator name="electronic exchange-correlation" >
    <i type="logical" name="LASPH"> F  </i>
    <i type="logical" name="LMETAGGA"> F  </i>
   </separator>
   <separator name="electronic convergence" >
    <i type="int" name="NELM">   100</i>
    <i type="int" name="NELMDL">    -5</i>
    <i type="int" name="NELMIN">     2</i>
    <i name="ENINI">    400.00000000</i>
    <separator name="electronic convergence detail" >
     <i type="logical" name="LDIAG"> T  </i>
     <i type="logical" name="LSUBROT"> F  </i>
     <i name="WEIMIN">      0.00000000</i>
     <i name="EBREAK">      0.00000000</i>
     <i name="DEPER">      0.30000000</i>
     <i type="int" name="NRMM">     4</i>
     <i name="TIME">      0.40000000</i>
    </separator>
   </separator>
   <separator name="electronic mixer" >
    <i name="AMIX">      0.40000000</i>
    <i name="BMIX">      1.00000000</i>
    <i name="AMIN">      0.10000000</i>
    <i name="AMIX_MAG">      1.60000000</i>
    <i name="BMIX_MAG">      1.00000000</i>
    <separator name="electronic mixer details" >
     <i type="int" name="IMIX">     4</i>
     <i type="logical" name="MIXFIRST"> F  </i>
     <i type="int" name="MAXMIX">   -45</i>
     <i name="WC">    100.00000000</i>
     <i type="int" name="INIMIX">     1</i>
     <i type="int" name="MIXPRE">     1</i>
     <i type="int" name="MREMOVE">     5</i>
    </separator>
   </separator>
   <separator name="electronic dipolcorrection" >
    <i type="logical" name="LDIPOL"> F  </i>
    <i type="logical" name="LMONO"> F  </i>
    <i type="int" name="IDIPOL">     0</i>
    <i name="EPSILON">      1.00000000</i>
    <v name="DIPOL">   -100.00000000   -100.00000000   -100.00000000</v>
    <i name="EFIELD">      0.00000000</i>
   </separator>
  </separator>
  <separator name="grids" >
   <i type="int" name="NGX">    20</i>
   <i type="int" name="NGY">    20</i>
   <i type="int" name="NGZ">    20</i>
   <i type="int" name="NGXF">    40</i>
   <i type="int" name="NGYF">    40</i>
   <i type="int" name="NGZF">    40</i>
   <i type="logical" name="ADDGRID"> F  </i>
  </separator>
  <separator name="ionic" >
   <i type="int" name="NSW">     0</i>
   <i type="int" name="IBRION">    -1</i>
   <i type="int" name="MDALGO">     0</i>
   <i type="int" name="ISIF">     3</i>
   <i name="PSTRESS">      0.00000000</i>
   <i name="EDIFFG">      0.00000100</i>
   <i type="int" name="NFREE">     0</i>
   <i name="POTIM">      0.50000000</i>
   <i name="SMASS">     -3.00000000</i>
   <i name="SCALEE">      1.00000000</i>
  </separator>
  <separator name="ionic md" >
   <i name="TEBEG">      0.00010000</i>
   <i name="TEEND">      0.00010000</i>
   <i type="int" name="NBLOCK">     1</i>
   <i type="int" name="KBLOCK">     1</i>
   <i type="int" name="NPACO">   256</i>
   <i name="APACO">     16.00000000</i>
  </separator>
  <separator name="symmetry" >
   <i type="int" name="ISYM">     2</i>
   <i name="SYMPREC">      0.00001000</i>
  </separator>
  <separator name="dos" >
   <i type="int" name="LORBIT">    11</i>
   <v name="RWIGS">     -1.00000000</v>
   <i type="int" name="NEDOS">   301</i>
   <i name="EMIN">     10.00000000</i>
   <i name="EMAX">    -10.00000000</i>
   <i name="EFERMI">      0.00000000</i>
  </separator>
  <separator name="writing" >
   <i type="int" name="NWRITE">     2</i>
   <i type="logical" name="LWAVE"> F  </i>
   <i type="logical" name="LDOWNSAMPLE"> F  </i>
   <i type="logical" name="LCHARG"> F  </i>
   <i type="logical" name="LPARD"> F  </i>
   <i type="logical" name="LVTOT"> F  </i>
   <i type="logical" name="LVHAR"> F  </i>
   <i type="logical" name="LELF"> F  </i>
   <i type="logical" name="LOPTICS"> F  </i>
   <v name="STM">      0.00000000      0.00000000      0.00000000      0.00000000      0.00000000      0.00000000      0.00000000</v>
  </separator>
  <separator name="performance" >
   <i type="int" name="NPAR">     6</i>
   <i type="int" name="NSIM">     4</i>
   <i type="int" name="NBLK">    -1</i>
   <i type="logical" name="LPLANE"> T  </i>
   <i type="logical" name="LSCALAPACK"> T  </i>
   <i type="logical" name="LSCAAWARE"> T  </i>
   <i type="logical" name="LSCALU"> F  </i>
   <i type="logical" name="LASYNC"> F  </i>
   <i type="logical" name="LORBITALREAL"> F  </i>
  </separator>
  <separator name="miscellaneous" >
   <i type="int" name="IDIOT">     3</i>
   <i type="int" name="ISPECIAL">     0</i>
   <i type="logical" name="LMUSIC"> F  </i>
   <v name="POMASS">     55.84700000</v>
   <v name="DARWINR">      0.00000000</v>
   <v name="DARWINV">      1.00000000</v>
   <i type="logical" name="LCORR"> T  </i>
  </separator>
  <i type="logical" name="GGA_COMPAT"> T  </i>
  <i type="logical" name="LBERRY"> F  </i>
  <i type="int" name="ICORELEVEL">     0</i>
  <i type="logical" name="LDAU"> F  </i>
  <i type="int" name="I_CONSTRAINED_M">     0</i>
  <separator name="electronic exchange-correlation" >
   <i type="string" name="GGA">--</i>
   <i type="int" name="VOSKOWN">     0</i>
   <i type="logical" name="LHFCALC"> F  </i>
   <i type="string" name="PRECFOCK"></i>
   <i type="logical" name="LSYMGRAD"> F  </i>
   <i type="logical" name="LHFONE"> F  </i>
   <i type="logical" name="LRHFCALC"> F  </i>
   <i type="logical" name="LTHOMAS"> F  </i>
   <i type="logical" name="LMODELHF"> F  </i>
   <i name="ENCUT4O">     -1.00000000</i>
   <i type="int" name="EXXOEP">     0</i>
   <i type="int" name="FOURORBIT">     0</i>
   <i name="AEXX">      0.00000000</i>
   <i name="HFALPHA">      0.00000000</i>
   <i name="MCALPHA">      0.00000000</i>
   <i name="ALDAX">      1.00000000</i>
   <i name="AGGAX">      1.00000000</i>
   <i name="ALDAC">      1.00000000</i>
   <i name="AGGAC">      1.00000000</i>
   <i type="int" name="NKREDX">     1</i>
   <i type="int" name="NKREDY">     1</i>
   <i type="int" name="NKREDZ">     1</i>
   <i type="logical" name="SHIFTRED"> F  </i>
   <i type="logical" name="ODDONLY"> F  </i>
   <i type="logical" name="EVENONLY"> F  </i>
   <i type="int" name="LMAXFOCK">     0</i>
   <i type="int" name="NMAXFOCKAE">     0</i>
   <i type="logical" name="LFOCKAEDFT"> F  </i>
   <i name="HFSCREEN">      0.00000000</i>
   <i name="HFSCREENC">      0.00000000</i>
   <i type="int" name="NBANDSGWLOW">     0</i>
  </separator>
  <separator name="vdW DFT" >
   <i type="logical" name="LUSE_VDW"> F  </i>
   <i name="Zab_VDW">     -0.84910000</i>
   <i name="PARAM1">      0.12340000</i>
   <i name="PARAM2">      1.00000000</i>
   <i name="PARAM3">      0.00000000</i>
  </separator>
  <separator name="model GW" >
   <i type="int" name="MODEL_GW">     0</i>
   <i name="MODEL_EPS0">      6.87226868</i>
   <i name="MODEL_ALPHA">      1.00000000</i>
  </separator>
  <separator name="linear response parameters" >
   <i type="logical" name="LEPSILON"> F  </i>
   <i type="logical" name="LRPA"> F  </i>
   <i type="logical" name="LNABLA"> F  </i>
   <i type="logical" name="LVEL"> F  </i>
   <i type="int" name="KINTER">     0</i>
   <i name="CSHIFT">      0.10000000</i>
   <i name="OMEGAMAX">     -1.00000000</i>
   <i name="DEG_THRESHOLD">      0.00200000</i>
   <i name="RTIME">     -0.10000000</i>
   <i name="WPLASMAI">      0.00000000</i>
   <v name="DFIELD">      0.00000000      0.00000000      0.00000000</v>
   <v name="WPLASMA">      0.00000000      0.00000000      0.00000000      0.00000000      0.00000000      0.00000000      0.00000000      0.00000000      0.00000000</v>
  </separator>
  <separator name="orbital magnetization" >
   <i type="logical" name="NUCIND"> F  </i>
   <v name="MAGPOS">      0.00000000      0.00000000      0.00000000</v>
   <i type="logical" name="LNICSALL"> T  </i>
   <i type="logical" name="ORBITALMAG"> F  </i>
   <i type="logical" name="LMAGBLOCH"> F  </i>
   <i type="logical" name="LCHIMAG"> F  </i>
   <i type="logical" name="LGAUGE"> T  </i>
   <i type="int" name="MAGATOM">     0</i>
   <v name="MAGDIPOL">      0.00000000      0.00000000      0.00000000</v>
   <v name="AVECCONST">      0.00000000      0.00000000      0.00000000</v>
  </separator>
  <separator name="response functions" >
   <i type="logical" name="LADDER"> F  </i>
   <i type="logical" name="LRPAFORCE"> F  </i>
   <i type="logical" name="LFXC"> F  </i>
   <i type="logical" name="LHARTREE"> T  </i>
   <i type="int" name="IBSE">     0</i>
   <v type="int" name="KPOINT">    -1     0     0     0</v>
   <i type="logical" name="LTCTE"> F  </i>
   <i type="logical" name="LTETE"> F  </i>
   <i type="logical" name="LTRIPLET"> F  </i>
   <i type="logical" name="LFXCEPS"> F  </i>
   <i type="logical" name="LFXHEG"> F  </i>
   <i type="int" name="NATURALO">     2</i>
   <i type="logical" name="L2ORDER"> F  </i>
   <i type="logical" name="LMP2LT"> F  </i>
   <i type="logical" name="LUSEW"> F  </i>
   <i name="ENCUTGW">     -2.00000000</i>
   <i name="ENCUTGWSOFT">     -2.00000000</i>
   <i name="ENCUTLF">     -1.00000000</i>
   <i type="int" name="LMAXMP2">    -1</i>
   <i name="SCISSOR">      0.00000000</i>
   <i type="int" name="NOMEGA">     0</i>
   <i type="int" name="NOMEGAR">     0</i>
   <i type="int" name="NBANDSGW">    -1</i>
   <i type="int" name="NBANDSO">    -1</i>
   <i type="int" name="NBANDSV">    -1</i>
   <i type="int" name="NELM">   100</i>
   <i type="int" name="NELMHF">     1</i>
   <i type="int" name="DIM">     3</i>
   <i type="int" name="ANTIRES">     0</i>
   <i name="OMEGAMAX">    -30.00000000</i>
   <i name="OMEGAMIN">    -30.00000000</i>
   <i name="OMEGATL">   -200.00000000</i>
   <i type="int" name="OMEGAGRID">   140</i>
   <i name="CSHIFT">     -0.10000000</i>
   <i type="logical" name="SELFENERGY"> F  </i>
   <i type="logical" name="LSPECTRAL"> F  </i>
   <i type="logical" name="LSPECTRALGW"> F  </i>
   <i type="logical" name="LSINGLES"> F  </i>
   <i type="logical" name="LFERMIGW"> F  </i>
   <i type="logical" name="ODDONLYGW"> F  </i>
   <i type="logical" name="EVENONLYGW"> F  </i>
   <i type="int" name="NKREDLFX">     1</i>
   <i type="int" name="NKREDLFY">     1</i>
   <i type="int" name="NKREDLFZ">     1</i>
   <i type="int" name="MAXMEM">  2800</i>
   <i type="int" name="TELESCOPE">     0</i>
   <i type="int" name="TAUPAR">     1</i>
   <i type="int" name="OMEGAPAR">    -1</i>
   <i name="LAMBDA">      1.00000000</i>
  </separator>
  <separator name="External order field" >
   <i name="OFIELD_KAPPA">      0.00000000</i>
   <v name="OFIELD_K">      0.00000000      0.00000000      0.00000000</v>
   <i name="OFIELD_Q6_NEAR">      0.00000000</i>
   <i name="OFIELD_Q6_FAR">      0.00000000</i>
   <i name="OFIELD_A">      0.00000000</i>
  </separator>
 </parameters>
 <atominfo>
  <atoms>       2 </atoms>
  <types>       1 </types>
  <array name="atoms" >
   <dimension dim="1">ion</dimension>
   <field type="string">element</field>
   <field type="int">atomtype</field>
   <set>
    <rc><c>Fe</c><c>   1</c></rc>
    <rc><c>Fe</c><c>   1</c></rc>
   </set>
  </array>
  <array name="atomtypes" >
   <dimension dim="1">type</dimension>
   <field type="int">atomspertype</field>
   <field type="string">element</field>
   <field>mass</field>
   <field>valence</field>
   <field type="string">pseudopotential</field>
   <set>
    <rc><c>   2</c><c>Fe</c><c>     55.84700000</c><c>     14.00000000</c><c>  PAW_PBE Fe_pv 02Aug2007               </c></rc>
   </set>
  </array>
 </atominfo>
 <structure name="initialpos" >
  <crystal>
   <varray name="basis" >
    <v>       2.84005200       0.00000000       0.00000000 </v>
    <v>       0.00000000       2.84005200       0.00000000 </v>
    <v>       0.00000000       0.00000000       2.84005200 </v>
   </varray>
   <i name="volume">     22.90756226 </i>
   <varray name="rec_basis" >
    <v>       0.35210623       0.00000000       0.00000000 </v>
    <v>       0.00000000       0.35210623       0.00000000 </v>
    <v>       0.00000000       0.00000000       0.35210623 </v>
   </varray>
  </crystal>
  <varray name="positions" >
   <v>       0.00000000       0.00000000       0.00000000 </v>
   <v>       0.50000000       0.50000000       0.50000000 </v>
  </varray>
 </structure>
 <calculation>
  <scstep>
   <time name="dav">    0.41    0.42</time>
   <time name="total">    0.46    0.47</time>
   <energy>
    <i name="alphaZ">    218.87048721 </i>
    <i name="ewald">  -3616.56080017 </i>
    <i name="hartreedc">  -1162.86386254 </i>
    <i name="XCdc">    147.54620390 </i>
    <i name="pawpsdc">   3997.93860218 </i>
    <i name="pawaedc">  -4177.34792201 </i>
    <i name="eentropy">      0.00000000 </i>
    <i name="bandstr">   -148.91752993 </i>
    <i name="atom">   4914.77500278 </i>
    <i name="e_fr_energy">    173.44018142 </i>
    <i name="e_wo_entrp">    173.44018142 </i>
    <i name="e_0_energy">    173.44018142 </i>
   </energy>
  </scstep>
  <scstep>
   <time name="dav">    0.39    0.39</time>
   <time name="total">    0.44    0.48</time>
   <energy>
    <i name="e_fr_energy">    -11.51674258 </i>
    <i name="e_wo_entrp">    -11.51674258 </i>
    <i name="e_0_energy">    -11.51674258 </i>
   </energy>
  </scstep>
  <scstep>
   <time name="dav">    0.42    0.42</time>
   <time name="total">    0.45    0.46</time>
   <energy>
    <i name="e_fr_energy">    -16.23334140 </i>
    <i name="e_wo_entrp">    -16.23334140 </i>
    <i name="e_0_energy">    -16.23334140 </i>
   </energy>
  </scstep>
  <scstep>
   <time name="dav">    0.42    0.42</time>
   <time name="total">    0.45    0.45</time>
   <energy>
    <i name="e_fr_energy">    -16.26898577 </i>
    <i name="e_wo_entrp">    -16.26898577 </i>
    <i name="e_0_energy">    -16.26898577 </i>
   </energy>
  </scstep>
  <scstep>
   <time name="dav">    0.42    0.43</time>
   <time name="total">    0.47    0.47</time>
   <energy>
    <i name="e_fr_energy">    -16.26961503 </i>
    <i name="e_wo_entrp">    -16.26961503 </i>
    <i name="e_0_energy">    -16.26961503 </i>
   </energy>
  </scstep>
  <scstep>
   <time name="dav">    0.38    0.38</time>
   <time name="total">    0.43    0.43</time>
   <energy>
    <i name="e_fr_energy">    -16.43761069 </i>
    <i name="e_wo_entrp">    -16.43761069 </i>
    <i name="e_0_energy">    -16.43761069 </i>
   </energy>
  </scstep>
  <scstep>
   <time name="dav">    0.38    0.38</time>
   <time name="total">    0.43    0.43</time>
   <energy>
    <i name="e_fr_energy">    -16.50849421 </i>
    <i name="e_wo_entrp">    -16.50849421 </i>
    <i name="e_0_energy">    -16.50849421 </i>
   </energy>
  </scstep>
  <scstep>
   <time name="dav">    0.42    0.42</time>
   <time name="total">    0.47    0.47</time>
   <energy>
    <i name="e_fr_energy">    -16.52027498 </i>
    <i name="e_wo_entrp">    -16.52027498 </i>
    <i name="e_0_energy">    -16.52027498 </i>
   </energy>
  </scstep>
  <scstep>
   <time name="dav">    0.40    0.40</time>
   <time name="total">    0.45    0.45</time>
   <energy>
    <i name="e_fr_energy">    -16.51281708 </i>
    <i name="e_wo_entrp">    -16.51281708 </i>
    <i name="e_0_energy">    -16.51281708 </i>
   </energy>
  </scstep>
  <scstep>
   <time name="dav">    0.38    0.38</time>
   <time name="total">    0.44    0.44</time>
   <energy>
    <i name="e_fr_energy">    -16.51276387 </i>
    <i name="e_wo_entrp">    -16.51276387 </i>
    <i name="e_0_energy">    -16.51276387 </i>
   </energy>
  </scstep>
  <scstep>
   <time name="dav">    0.40    0.40</time>
   <time name="total">    0.45    0.45</time>
   <energy>
    <i name="e_fr_energy">    -16.51283184 </i>
    <i name="e_wo_entrp">    -16.51283184 </i>
    <i name="e_0_energy">    -16.51283184 </i>
   </energy>
  </scstep>
  <scstep>
   <time name="dav">    0.42    0.42</time>
   <time name="total">    0.47    0.47</time>
   <energy>
    <i name="e_fr_energy">    -16.51283878 </i>
    <i name="e_wo_entrp">    -16.51283878 </i>
    <i name="e_0_energy">    -16.51283878 </i>
   </energy>
  </scstep>
  <scstep>
   <time name="dav">    0.39    0.39</time>
   <time name="total">    0.44    0.45</time>
   <energy>
    <i name="e_fr_energy">    -16.51283095 </i>
    <i name="e_wo_entrp">    -16.51283095 </i>
    <i name="e_0_energy">    -16.51283095 </i>
   </energy>
  </scstep>
  <scstep>
   <time name="dav">    0.34    0.34</time>
   <time name="total">    0.39    0.39</time>
   <energy>
    <i name="e_fr_energy">    -16.51283069 </i>
    <i name="e_wo_entrp">    -16.51283069 </i>
    <i name="e_0_energy">    -16.51283069 </i>
   </energy>
  </scstep>
  <scstep>
   <time name="dav">    0.25    0.25</time>
   <time name="total">    0.30    0.30</time>
   <energy>
    <i name="e_fr_energy">    -16.51283082 </i>
    <i name="e_wo_entrp">    -16.51283082 </i>
    <i name="e_0_energy">    -16.51283082 </i>
   </energy>
  </scstep>
  <scstep>
   <time name="dav">    0.25    0.25</time>
   <time name="total">    0.31    0.31</time>
   <energy>
    <i name="e_fr_energy">    -16.51283059 </i>
    <i name="e_wo_entrp">    -16.51283059 </i>
    <i name="e_0_energy">    -16.51283059 </i>
   </energy>
  </scstep>
  <scstep>
   <time name="dav">    0.25    0.25</time>
   <time name="total">    0.29    0.29</time>
   <energy>
    <i name="e_fr_energy">    -16.51283070 </i>
    <i name="e_wo_entrp">    -16.51283070 </i>
    <i name="e_0_energy">    -16.51283070 </i>
   </energy>
  </scstep>
  <scstep>
   <time name="dav">    0.24    0.25</time>
   <time name="total">    0.28    0.28</time>
   <energy>
    <i name="alphaZ">    218.87048721 </i>
    <i name="ewald">  -3616.56080017 </i>
    <i name="hartreedc">  -1090.00770098 </i>
    <i name="XCdc">    140.87576700 </i>
    <i name="pawpsdc">   4374.20310326 </i>
    <i name="pawaedc">  -4559.50608352 </i>
    <i name="eentropy">      0.00000000 </i>
    <i name="bandstr">   -399.16260628 </i>
    <i name="atom">   4914.77500278 </i>
    <i name="e_fr_energy">    -16.51283070 </i>
    <i name="e_wo_entrp">    -16.51283070 </i>
    <i name="e_0_energy">    -16.51283070 </i>
   </energy>
  </scstep>
  <structure>
   <crystal>
    <varray name="basis" >
     <v>       2.84005200       0.00000000       0.00000000 </v>
     <v>       0.00000000       2.84005200       0.00000000 </v>
     <v>       0.00000000       0.00000000       2.84005200 </v>
    </varray>
    <i name="volume">     22.90756226 </i>
    <varray name="rec_basis" >
     <v>       0.35210623       0.00000000       0.00000000 </v>
     <v>       0.00000000       0.35210623       0.00000000 </v>
     <v>       0.00000000       0.00000000       0.35210623 </v>
    </varray>
   </crystal>
   <varray name="positions" >
    <v>       0.00000000       0.00000000       0.00000000 </v>
    <v>       0.50000000       0.50000000       0.50000000 </v>
   </varray>
  </structure>
  <varray name="forces" >
   <v>      -0.00000000      -0.00000000      -0.00000000 </v>
   <v>       0.00000000       0.00000000       0.00000000 </v>
  </varray>
  <varray name="stress" >
   <v>     -31.73274275      -0.00000000       0.00000000 </v>
   <v>      -0.00000000     -31.73274275       0.00000000 </v>
   <v>       0.00000000       0.00000000     -31.73274275 </v>
  </varray>
  <energy>
   <i name="e_fr_energy">    -16.51283070 </i>
   <i name="e_wo_entrp">    -16.51283070 </i>
   <i name="e_0_energy">      0.00000000 </i>
  </energy>
  <time name="totalsc">    7.69    7.76</time>
  <eigenvalues>
   <array>
    <dimension dim="1">band</dimension>
    <dimension dim="2">kpoint</dimension>
    <dimension dim="3">spin</dimension>
    <field>eigene</field>
    <field>occ</field>
    <set>
     <set comment="spin 1">
      <set comment="kpoint 1">
       <r>  -44.5569    1.0000 </r>
       <r>  -44.5569    1.0000 </r>
       <r>  -44.5419    1.0000 </r>
       <r>  -44.2847    1.0000 </r>
       <r>  -44.2695    1.0000 </r>
       <r>  -44.2695    1.0000 </r>
       <r>    1.3945    1.0000 </r>
       <r>    4.9418    1.0000 </r>
       <r>    4.9418    1.0000 </r>
       <r>    7.3097    1.0000 </r>
       <r>    7.3097    1.0000 </r>
       <r>    7.4353    1.0000 </r>
       <r>    8.5842    1.0000 </r>
       <r>    8.5842    1.0000 </r>
       <r>    9.4979    1.0000 </r>
       <r>    9.6902    0.6009 </r>
       <r>    9.6902    0.0098 </r>
       <r>   19.1971    0.0000 </r>
       <r>   19.1971    0.0000 </r>
       <r>   19.4386    0.0000 </r>
       <r>   25.8125    0.0000 </r>
       <r>   25.8125    0.0000 </r>
       <r>   30.6872    0.0000 </r>
       <r>   33.3496    0.0000 </r>
      </set>
      <set comment="kpoint 2">
       <r>  -44.5625    1.0000 </r>
       <r>  -44.5418    1.0000 </r>
       <r>  -44.5198    1.0000 </r>
       <r>  -44.3166    1.0000 </r>
       <r>  -44.2833    1.0000 </r>
       <r>  -44.2751    1.0000 </r>
       <r>    1.7982    1.0000 </r>
       <r>    5.1096    1.0000 </r>
       <r>    5.1121    1.0000 </r>
       <r>    7.2510    1.0000 </r>
       <r>    7.2988    1.0000 </r>
       <r>    7.6032    1.0000 </r>
       <r>    8.4181    1.0000 </r>
       <r>    8.6592    1.0000 </r>
       <r>    9.1073    1.0000 </r>
       <r>    9.3757    1.0210 </r>
       <r>    9.6688    0.1361 </r>
       <r>   17.0967    0.0000 </r>
       <r>   19.9163    0.0000 </r>
       <r>   20.0928    0.0000 </r>
       <r>   25.9639    0.0000 </r>
       <r>   27.1444    0.0000 </r>
       <r>   31.5535    0.0000 </r>
       <r>   32.1412    0.0000 </r>
      </set>
      <set comment="kpoint 3">
       <r>  -44.5593    1.0000 </r>
       <r>  -44.5137    1.0000 </r>
       <r>  -44.4890    1.0000 </r>
       <r>  -44.3637    1.0000 </r>
       <r>  -44.3085    1.0000 </r>
       <r>  -44.2952    1.0000 </r>
       <r>    2.5640    1.0000 </r>
       <r>    5.3710    1.0000 </r>
       <r>    5.4311    1.0000 </r>
       <r>    7.2468    1.0000 </r>
       <r>    7.2917    1.0000 </r>
       <r>    7.8457    1.0000 </r>
       <r>    8.1117    1.0000 </r>
       <r>    8.6100    1.0000 </r>
       <r>    8.7989    1.0000 </r>
       <r>    8.8923    1.0000 </r>
       <r>    9.4891    1.0390 </r>
       <r>   14.5739    0.0000 </r>
       <r>   21.1857    0.0000 </r>
       <r>   21.3557    0.0000 </r>
       <r>   26.2964    0.0000 </r>
       <r>   27.9700    0.0000 </r>
       <r>   29.6300    0.0000 </r>
       <r>   31.2952    0.0000 </r>
      </set>
      <set comment="kpoint 4">
       <r>  -44.5446    1.0000 </r>
       <r>  -44.4755    1.0000 </r>
       <r>  -44.4507    1.0000 </r>
       <r>  -44.4192    1.0000 </r>
       <r>  -44.3440    1.0000 </r>
       <r>  -44.3268    1.0000 </r>
       <r>    3.5867    1.0000 </r>
       <r>    5.5428    1.0000 </r>
       <r>    5.8763    1.0000 </r>
       <r>    7.2498    1.0000 </r>
       <r>    7.3254    1.0000 </r>
       <r>    7.7718    1.0000 </r>
       <r>    8.1340    1.0000 </r>
       <r>    8.1541    1.0000 </r>
       <r>    8.3964    1.0000 </r>
       <r>    9.0230    1.0000 </r>
       <r>    9.2037    1.0387 </r>
       <r>   12.2824    0.0000 </r>
       <r>   22.7930    0.0000 </r>
       <r>   23.0047    0.0000 </r>
       <r>   26.8770    0.0000 </r>
       <r>   27.8756    0.0000 </r>
       <r>   28.6076    0.0000 </r>
       <r>   29.1455    0.0000 </r>
      </set>
      <set comment="kpoint 5">
       <r>  -44.5152    1.0000 </r>
       <r>  -44.4719    1.0000 </r>
       <r>  -44.4315    1.0000 </r>
       <r>  -44.4084    1.0000 </r>
       <r>  -44.3862    1.0000 </r>
       <r>  -44.3656    1.0000 </r>
       <r>    4.6400    1.0000 </r>
       <r>    5.3590    1.0000 </r>
       <r>    6.3987    1.0000 </r>
       <r>    6.9214    1.0000 </r>
       <r>    7.5031    1.0000 </r>
       <r>    7.7351    1.0000 </r>
       <r>    7.7664    1.0000 </r>
       <r>    7.9894    1.0000 </r>
       <r>    8.5029    1.0000 </r>
       <r>    8.8611    1.0000 </r>
       <r>    9.4861    0.9857 </r>
       <r>   10.5204    0.0000 </r>
       <r>   24.5316    0.0000 </r>
       <r>   24.9020    0.0000 </r>
       <r>   26.2269    0.0000 </r>
       <r>   26.9648    0.0000 </r>
       <r>   27.8221    0.0000 </r>
       <r>   29.2510    0.0000 </r>
      </set>
      <set comment="kpoint 6">
       <r>  -44.5762    1.0000 </r>
       <r>  -44.5327    1.0000 </r>
       <r>  -44.4872    1.0000 </r>
       <r>  -44.3578    1.0000 </r>
       <r>  -44.2933    1.0000 </r>
       <r>  -44.2696    1.0000 </r>
       <r>    2.1862    1.0000 </r>
       <r>    5.2428    1.0000 </r>
       <r>    5.3019    1.0000 </r>
       <r>    7.0983    1.0000 </r>
       <r>    7.2419    1.0000 </r>
       <r>    7.8741    1.0000 </r>
       <r>    8.4425    1.0000 </r>
       <r>    8.6146    1.0000 </r>
       <r>    8.6280    1.0000 </r>
       <r>    9.1529    1.0069 </r>
       <r>    9.7380    0.0310 </r>
       <r>   17.1945    0.0000 </r>
       <r>   18.2783    0.0000 </r>
       <r>   20.6482    0.0000 </r>
       <r>   26.6294    0.0000 </r>
       <r>   28.5405    0.0000 </r>
       <r>   29.9225    0.0000 </r>
       <r>   31.9700    0.0000 </r>
      </set>
      <set comment="kpoint 7">
       <r>  -44.5856    1.0000 </r>
       <r>  -44.5071    1.0000 </r>
       <r>  -44.4491    1.0000 </r>
       <r>  -44.4123    1.0000 </r>
       <r>  -44.3162    1.0000 </r>
       <r>  -44.2767    1.0000 </r>
       <r>    2.9129    1.0000 </r>
       <r>    5.4589    1.0000 </r>
       <r>    5.6243    1.0000 </r>
       <r>    6.9930    1.0000 </r>
       <r>    7.1867    1.0000 </r>
       <r>    8.1092    1.0000 </r>
       <r>    8.2042    1.0000 </r>
       <r>    8.2865    1.0000 </r>
       <r>    8.7249    1.0000 </r>
       <r>    8.7287    1.0000 </r>
       <r>    9.6918    0.2886 </r>
       <r>   14.9825    0.0000 </r>
       <r>   19.0099    0.0000 </r>
       <r>   21.7932    0.0000 </r>
       <r>   27.0205    0.0000 </r>
       <r>   27.7476    0.0000 </r>
       <r>   29.9238    0.0000 </r>
       <r>   30.6410    0.0000 </r>
      </set>
      <set comment="kpoint 8">
       <r>  -44.5814    1.0000 </r>
       <r>  -44.4715    1.0000 </r>
       <r>  -44.4702    1.0000 </r>
       <r>  -44.4084    1.0000 </r>
       <r>  -44.3489    1.0000 </r>
       <r>  -44.2980    1.0000 </r>
       <r>    3.8559    1.0000 </r>
       <r>    5.5982    1.0000 </r>
       <r>    6.0151    1.0000 </r>
       <r>    6.9688    1.0000 </r>
       <r>    7.1227    1.0000 </r>
       <r>    7.6707    1.0000 </r>
       <r>    8.0971    1.0000 </r>
       <r>    8.3411    1.0000 </r>
       <r>    8.5681    1.0000 </r>
       <r>    8.9671    1.0000 </r>
       <r>    9.5001    0.9237 </r>
       <r>   12.6526    0.0000 </r>
       <r>   20.3743    0.0000 </r>
       <r>   23.3097    0.0000 </r>
       <r>   25.6597    0.0000 </r>
       <r>   27.5890    0.0000 </r>
       <r>   28.7779    0.0000 </r>
       <r>   30.9251    0.0000 </r>
      </set>
      <set comment="kpoint 9">
       <r>  -44.5602    1.0000 </r>
       <r>  -44.5216    1.0000 </r>
       <r>  -44.4303    1.0000 </r>
       <r>  -44.3881    1.0000 </r>
       <r>  -44.3676    1.0000 </r>
       <r>  -44.3294    1.0000 </r>
       <r>    4.7812    1.0000 </r>
       <r>    5.4057    1.0000 </r>
       <r>    6.4403    1.0000 </r>
       <r>    6.8187    1.0000 </r>
       <r>    7.1537    1.0000 </r>
       <r>    7.3595    1.0000 </r>
       <r>    8.0588    1.0000 </r>
       <r>    8.1322    1.0000 </r>
       <r>    8.8930    1.0000 </r>
       <r>    9.2116    1.0000 </r>
       <r>    9.5438    0.7803 </r>
       <r>   10.7650    0.0000 </r>
       <r>   21.9633    0.0000 </r>
       <r>   23.7281    0.0000 </r>
       <r>   25.0453    0.0000 </r>
       <r>   26.8814    0.0000 </r>
       <r>   28.4941    0.0000 </r>
       <r>   29.8465    0.0000 </r>
      </set>
      <set comment="kpoint 10">
       <r>  -44.6085    1.0000 </r>
       <r>  -44.4864    1.0000 </r>
       <r>  -44.4722    1.0000 </r>
       <r>  -44.4060    1.0000 </r>
       <r>  -44.3339    1.0000 </r>
       <r>  -44.2694    1.0000 </r>
       <r>    3.5364    1.0000 </r>
       <r>    5.5138    1.0000 </r>
       <r>    6.0178    1.0000 </r>
       <r>    6.7762    1.0000 </r>
       <r>    7.1572    1.0000 </r>
       <r>    7.6023    1.0000 </r>
       <r>    8.4304    1.0000 </r>
       <r>    8.4323    1.0000 </r>
       <r>    8.6268    1.0000 </r>
       <r>    8.6691    1.0000 </r>
       <r>    9.8112   -0.0343 </r>
       <r>   14.8624    0.0000 </r>
       <r>   17.4633    0.0000 </r>
       <r>   22.7523    0.0000 </r>
       <r>   25.3825    0.0000 </r>
       <r>   27.3660    0.0000 </r>
       <r>   30.0595    0.0000 </r>
       <r>   32.3859    0.0000 </r>
      </set>
      <set comment="kpoint 11">
       <r>  -44.6176    1.0000 </r>
       <r>  -44.5302    1.0000 </r>
       <r>  -44.4573    1.0000 </r>
       <r>  -44.3644    1.0000 </r>
       <r>  -44.3594    1.0000 </r>
       <r>  -44.2765    1.0000 </r>
       <r>    4.2625    1.0000 </r>
       <r>    5.4707    1.0000 </r>
       <r>    6.4709    1.0000 </r>
       <r>    6.6686    1.0000 </r>
       <r>    7.1933    1.0000 </r>
       <r>    7.2463    1.0000 </r>
       <r>    8.2762    1.0000 </r>
       <r>    8.4086    1.0000 </r>
       <r>    8.8139    1.0000 </r>
       <r>    9.0733    1.0219 </r>
       <r>    9.7614    0.0036 </r>
       <r>   13.0478    0.0000 </r>
       <r>   18.1014    0.0000 </r>
       <r>   23.1665    0.0000 </r>
       <r>   24.0638    0.0000 </r>
       <r>   27.8473    0.0000 </r>
       <r>   28.7843    0.0000 </r>
       <r>   31.4390    0.0000 </r>
      </set>
      <set comment="kpoint 12">
       <r>  -44.6081    1.0000 </r>
       <r>  -44.5777    1.0000 </r>
       <r>  -44.4241    1.0000 </r>
       <r>  -44.3902    1.0000 </r>
       <r>  -44.3272    1.0000 </r>
       <r>  -44.2966    1.0000 </r>
       <r>    4.8672    1.0000 </r>
       <r>    5.2616    1.0000 </r>
       <r>    6.6868    1.0000 </r>
       <r>    6.7746    1.0000 </r>
       <r>    7.0157    1.0000 </r>
       <r>    7.2270    1.0000 </r>
       <r>    8.3161    1.0000 </r>
       <r>    8.3993    1.0000 </r>
       <r>    9.1847    1.0000 </r>
       <r>    9.5504    0.9513 </r>
       <r>    9.7312    0.0307 </r>
       <r>   11.1099    0.0000 </r>
       <r>   19.4869    0.0000 </r>
       <r>   21.1915    0.0000 </r>
       <r>   25.5938    0.0000 </r>
       <r>   27.2053    0.0000 </r>
       <r>   28.6457    0.0000 </r>
       <r>   29.8672    0.0000 </r>
      </set>
      <set comment="kpoint 13">
       <r>  -44.6407    1.0000 </r>
       <r>  -44.5849    1.0000 </r>
       <r>  -44.4377    1.0000 </r>
       <r>  -44.3748    1.0000 </r>
       <r>  -44.3259    1.0000 </r>
       <r>  -44.2690    1.0000 </r>
       <r>    4.6036    1.0000 </r>
       <r>    5.2528    1.0000 </r>
       <r>    6.4720    1.0000 </r>
       <r>    6.7944    1.0000 </r>
       <r>    7.0724    1.0000 </r>
       <r>    7.8016    1.0000 </r>
       <r>    8.3325    1.0000 </r>
       <r>    8.5860    1.0000 </r>
       <r>    8.7361    1.0000 </r>
       <r>    9.5078    0.9626 </r>
       <r>    9.8620   -0.0050 </r>
       <r>   12.6725    0.0000 </r>
       <r>   17.0731    0.0000 </r>
       <r>   20.9309    0.0000 </r>
       <r>   25.1079    0.0000 </r>
       <r>   28.2065    0.0000 </r>
       <r>   28.4075    0.0000 </r>
       <r>   30.7442    0.0000 </r>
      </set>
      <set comment="kpoint 14">
       <r>  -44.6440    1.0000 </r>
       <r>  -44.6248    1.0000 </r>
       <r>  -44.4160    1.0000 </r>
       <r>  -44.3941    1.0000 </r>
       <r>  -44.2957    1.0000 </r>
       <r>  -44.2760    1.0000 </r>
       <r>    4.8294    1.0000 </r>
       <r>    5.0297    1.0000 </r>
       <r>    6.4207    1.0000 </r>
       <r>    6.5298    1.0000 </r>
       <r>    7.6368    1.0000 </r>
       <r>    8.0181    1.0000 </r>
       <r>    8.4809    1.0000 </r>
       <r>    8.6124    1.0000 </r>
       <r>    9.2374    1.0000 </r>
       <r>    9.7509    0.3161 </r>
       <r>   10.0513    0.0000 </r>
       <r>   11.2878    0.0000 </r>
       <r>   17.6502    0.0000 </r>
       <r>   19.0545    0.0000 </r>
       <r>   26.3143    0.0000 </r>
       <r>   27.4980    0.0000 </r>
       <r>   28.8161    0.0000 </r>
       <r>   29.7235    0.0000 </r>
      </set>
      <set comment="kpoint 15">
       <r>  -44.6606    1.0000 </r>
       <r>  -44.6541    1.0000 </r>
       <r>  -44.4073    1.0000 </r>
       <r>  -44.3999    1.0000 </r>
       <r>  -44.2757    1.0000 </r>
       <r>  -44.2690    1.0000 </r>
       <r>    4.7977    1.0000 </r>
       <r>    4.8593    1.0000 </r>
       <r>    6.2915    1.0000 </r>
       <r>    6.3291    1.0000 </r>
       <r>    8.3642    1.0000 </r>
       <r>    8.6024    1.0000 </r>
       <r>    8.6234    1.0000 </r>
       <r>    8.7849    1.0000 </r>
       <r>    9.2776    1.0000 </r>
       <r>    9.7056    0.2832 </r>
       <r>   10.4366    0.0000 </r>
       <r>   10.9861    0.0000 </r>
       <r>   16.9408    0.0000 </r>
       <r>   17.5270    0.0000 </r>
       <r>   27.0332    0.0000 </r>
       <r>   27.4872    0.0000 </r>
       <r>   29.0810    0.0000 </r>
       <r>   29.4250    0.0000 </r>
      </set>
      <set comment="kpoint 16">
       <r>  -44.5608    1.0000 </r>
       <r>  -44.5608    1.0000 </r>
       <r>  -44.4514    1.0000 </r>
       <r>  -44.3949    1.0000 </r>
       <r>  -44.2836    1.0000 </r>
       <r>  -44.2836    1.0000 </r>
       <r>    2.5636    1.0000 </r>
       <r>    5.4300    1.0000 </r>
       <r>    5.4300    1.0000 </r>
       <r>    7.0409    1.0000 </r>
       <r>    7.0409    1.0000 </r>
       <r>    8.0891    1.0000 </r>
       <r>    8.1903    1.0000 </r>
       <r>    8.5323    1.0000 </r>
       <r>    8.5323    1.0000 </r>
       <r>    9.4282    0.9998 </r>
       <r>    9.4282    1.1120 </r>
       <r>   17.8400    0.0000 </r>
       <r>   17.8400    0.0000 </r>
       <r>   19.2332    0.0000 </r>
       <r>   28.7884    0.0000 </r>
       <r>   28.7884    0.0000 </r>
       <r>   29.7392    0.0000 </r>
       <r>   29.7392    0.0000 </r>
      </set>
      <set comment="kpoint 17">
       <r>  -44.5807    1.0000 </r>
       <r>  -44.5310    1.0000 </r>
       <r>  -44.4467    1.0000 </r>
       <r>  -44.4129    1.0000 </r>
       <r>  -44.3113    1.0000 </r>
       <r>  -44.2830    1.0000 </r>
       <r>    3.2627    1.0000 </r>
       <r>    5.6692    1.0000 </r>
       <r>    5.7033    1.0000 </r>
       <r>    6.9082    1.0000 </r>
       <r>    6.9393    1.0000 </r>
       <r>    7.5766    1.0000 </r>
       <r>    8.3864    1.0000 </r>
       <r>    8.5887    1.0000 </r>
       <r>    8.6869    1.0000 </r>
       <r>    8.9754    1.0000 </r>
       <r>    9.5097    0.9522 </r>
       <r>   15.4690    0.0000 </r>
       <r>   18.9542    0.0000 </r>
       <r>   19.8732    0.0000 </r>
       <r>   27.5259    0.0000 </r>
       <r>   28.5406    0.0000 </r>
       <r>   29.3039    0.0000 </r>
       <r>   30.5088    0.0000 </r>
      </set>
      <set comment="kpoint 18">
       <r>  -44.5868    1.0000 </r>
       <r>  -44.4995    1.0000 </r>
       <r>  -44.4903    1.0000 </r>
       <r>  -44.3757    1.0000 </r>
       <r>  -44.3494    1.0000 </r>
       <r>  -44.2935    1.0000 </r>
       <r>    4.1468    1.0000 </r>
       <r>    5.8220    1.0000 </r>
       <r>    5.9823    1.0000 </r>
       <r>    6.7993    1.0000 </r>
       <r>    6.9338    1.0000 </r>
       <r>    7.2717    1.0000 </r>
       <r>    8.2301    1.0000 </r>
       <r>    8.5497    1.0000 </r>
       <r>    8.8124    1.0000 </r>
       <r>    9.1312    1.0000 </r>
       <r>    9.4101    0.9272 </r>
       <r>   13.1239    0.0000 </r>
       <r>   20.3541    0.0000 </r>
       <r>   21.0616    0.0000 </r>
       <r>   25.4924    0.0000 </r>
       <r>   26.4553    0.0000 </r>
       <r>   30.1162    0.0000 </r>
       <r>   31.4536    0.0000 </r>
      </set>
      <set comment="kpoint 19">
       <r>  -44.5750    1.0000 </r>
       <r>  -44.5446    1.0000 </r>
       <r>  -44.4433    1.0000 </r>
       <r>  -44.3947    1.0000 </r>
       <r>  -44.3426    1.0000 </r>
       <r>  -44.3142    1.0000 </r>
       <r>    4.9800    1.0000 </r>
       <r>    5.5636    1.0000 </r>
       <r>    6.3137    1.0000 </r>
       <r>    6.5977    1.0000 </r>
       <r>    7.0980    1.0000 </r>
       <r>    7.2086    1.0000 </r>
       <r>    8.1578    1.0000 </r>
       <r>    8.2590    1.0000 </r>
       <r>    8.9776    1.0000 </r>
       <r>    9.1969    1.0000 </r>
       <r>    9.9068   -0.0488 </r>
       <r>   11.2104    0.0000 </r>
       <r>   21.9286    0.0000 </r>
       <r>   22.5727    0.0000 </r>
       <r>   23.6374    0.0000 </r>
       <r>   24.3830    0.0000 </r>
       <r>   31.2419    0.0000 </r>
       <r>   32.1278    0.0000 </r>
      </set>
      <set comment="kpoint 20">
       <r>  -44.5911    1.0000 </r>
       <r>  -44.5218    1.0000 </r>
       <r>  -44.4945    1.0000 </r>
       <r>  -44.3759    1.0000 </r>
       <r>  -44.3256    1.0000 </r>
       <r>  -44.2851    1.0000 </r>
       <r>    3.8843    1.0000 </r>
       <r>    5.7563    1.0000 </r>
       <r>    6.0669    1.0000 </r>
       <r>    6.7035    1.0000 </r>
       <r>    6.8517    1.0000 </r>
       <r>    7.0984    1.0000 </r>
       <r>    8.4943    1.0000 </r>
       <r>    8.6520    1.0000 </r>
       <r>    8.8070    1.0000 </r>
       <r>    9.0835    1.0000 </r>
       <r>    9.4882    0.8374 </r>
       <r>   15.5498    0.0000 </r>
       <r>   17.5320    0.0000 </r>
       <r>   20.3309    0.0000 </r>
       <r>   25.5626    0.0000 </r>
       <r>   27.9318    0.0000 </r>
       <r>   30.2206    0.0000 </r>
       <r>   30.2782    0.0000 </r>
      </set>
      <set comment="kpoint 21">
       <r>  -44.6038    1.0000 </r>
       <r>  -44.5420    1.0000 </r>
       <r>  -44.4872    1.0000 </r>
       <r>  -44.3580    1.0000 </r>
       <r>  -44.3440    1.0000 </r>
       <r>  -44.2885    1.0000 </r>
       <r>    4.5896    1.0000 </r>
       <r>    5.7279    1.0000 </r>
       <r>    6.3780    1.0000 </r>
       <r>    6.5843    1.0000 </r>
       <r>    6.9043    1.0000 </r>
       <r>    6.9107    1.0000 </r>
       <r>    8.4459    1.0000 </r>
       <r>    8.5460    1.0000 </r>
       <r>    8.7813    1.0000 </r>
       <r>    9.4437    1.0000 </r>
       <r>    9.6514    0.1954 </r>
       <r>   13.7014    0.0000 </r>
       <r>   18.2661    0.0000 </r>
       <r>   21.4223    0.0000 </r>
       <r>   23.3768    0.0000 </r>
       <r>   26.4161    0.0000 </r>
       <r>   30.0156    0.0000 </r>
       <r>   30.7683    0.0000 </r>
      </set>
      <set comment="kpoint 22">
       <r>  -44.6016    1.0000 </r>
       <r>  -44.5799    1.0000 </r>
       <r>  -44.4441    1.0000 </r>
       <r>  -44.3991    1.0000 </r>
       <r>  -44.3182    1.0000 </r>
       <r>  -44.2991    1.0000 </r>
       <r>    5.1420    1.0000 </r>
       <r>    5.5068    1.0000 </r>
       <r>    6.4634    1.0000 </r>
       <r>    6.5151    1.0000 </r>
       <r>    7.0578    1.0000 </r>
       <r>    7.0725    1.0000 </r>
       <r>    8.4068    1.0000 </r>
       <r>    8.4236    1.0000 </r>
       <r>    8.9813    1.0000 </r>
       <r>    9.2481    1.0150 </r>
       <r>   10.4653   -0.0553 </r>
       <r>   11.8110    0.0000 </r>
       <r>   19.6863    0.0000 </r>
       <r>   21.4015    0.0000 </r>
       <r>   22.8351    0.0000 </r>
       <r>   24.5255    0.0000 </r>
       <r>   30.5798    0.0000 </r>
       <r>   31.0074    0.0000 </r>
      </set>
      <set comment="kpoint 23">
       <r>  -44.6217    1.0000 </r>
       <r>  -44.5836    1.0000 </r>
       <r>  -44.4647    1.0000 </r>
       <r>  -44.3763    1.0000 </r>
       <r>  -44.3185    1.0000 </r>
       <r>  -44.2863    1.0000 </r>
       <r>    4.9334    1.0000 </r>
[...]
       </set>
       <set comment="band 12">
        <r>  0.0000  0.0156  0.0160  0.0430  0.0467  0.1256  0.0319  0.0455  0.0671 </r>
        <r>  0.0000  0.0156  0.0160  0.0430  0.0467  0.1256  0.0319  0.0455  0.0671 </r>
       </set>
       <set comment="band 13">
        <r>  0.0000  0.0013  0.0006  0.0002  0.0399  0.0116  0.1483  0.0880  0.1974 </r>
        <r>  0.0000  0.0013  0.0006  0.0002  0.0399  0.0116  0.1483  0.0880  0.1974 </r>
       </set>
       <set comment="band 14">
        <r>  0.0000  0.0001  0.0008  0.0012  0.0531  0.0814  0.1974  0.0050  0.1483 </r>
        <r>  0.0000  0.0001  0.0008  0.0012  0.0531  0.0814  0.1974  0.0050  0.1483 </r>
       </set>
       <set comment="band 15">
        <r>  0.0000  0.0000  0.0000  0.0000  0.0038  0.0234  0.0733  0.0083  0.3795 </r>
        <r>  0.0000  0.0000  0.0000  0.0000  0.0038  0.0234  0.0733  0.0083  0.3795 </r>
       </set>
       <set comment="band 16">
        <r>  0.0000  0.0000  0.0000  0.0000  0.0198  0.0003  0.3795  0.0154  0.0733 </r>
        <r>  0.0000  0.0000  0.0000  0.0000  0.0198  0.0003  0.3795  0.0154  0.0733 </r>
       </set>
       <set comment="band 17">
        <r>  0.0250  0.0199  0.0199  0.0199  0.1216  0.1216  0.0000  0.1216  0.0000 </r>
        <r>  0.0250  0.0199  0.0199  0.0199  0.1216  0.1216  0.0000  0.1216  0.0000 </r>
       </set>
       <set comment="band 18">
        <r>  0.0000  0.0311  0.1119  0.0314  0.1094  0.0306  0.0515  0.0304  0.0020 </r>
        <r>  0.0000  0.0311  0.1119  0.0314  0.1094  0.0306  0.0515  0.0304  0.0020 </r>
       </set>
       <set comment="band 19">
        <r>  0.0000  0.0851  0.0044  0.0849  0.0043  0.0830  0.0020  0.0832  0.0515 </r>
        <r>  0.0000  0.0851  0.0044  0.0849  0.0043  0.0830  0.0020  0.0832  0.0515 </r>
       </set>
       <set comment="band 20">
        <r>  0.2673  0.0000  0.0000  0.0000  0.0373  0.0373  0.0000  0.0373  0.0000 </r>
        <r>  0.2673  0.0000  0.0000  0.0000  0.0373  0.0373  0.0000  0.0373  0.0000 </r>
       </set>
       <set comment="band 21">
        <r>  0.0000  0.0191  0.0397  0.1136  0.0361  0.1032  0.0074  0.0173  0.0141 </r>
        <r>  0.0000  0.0191  0.0397  0.1136  0.0361  0.1032  0.0074  0.0173  0.0141 </r>
       </set>
       <set comment="band 22">
        <r>  0.0000  0.0958  0.0752  0.0013  0.0683  0.0012  0.0141  0.0871  0.0074 </r>
        <r>  0.0000  0.0958  0.0752  0.0013  0.0683  0.0012  0.0141  0.0871  0.0074 </r>
       </set>
       <set comment="band 23">
        <r>  0.2450  0.0532  0.0532  0.0532  0.0018  0.0018  0.0000  0.0018  0.0000 </r>
        <r>  0.2450  0.0532  0.0532  0.0532  0.0018  0.0018  0.0000  0.0018  0.0000 </r>
       </set>
       <set comment="band 24">
        <r>  0.0490  0.0821  0.0821  0.0821  0.0283  0.0283  0.0000  0.0283  0.0000 </r>
        <r>  0.0490  0.0821  0.0821  0.0821  0.0283  0.0283  0.0000  0.0283  0.0000 </r>
       </set>
      </set>
      <set comment="kpoint 33">
       <set comment="band 1">
        <r>  0.0000  0.1308  0.1308  0.2345  0.0000  0.0000  0.0000  0.0000  0.0000 </r>
        <r>  0.0000  0.1308  0.1308  0.2345  0.0000  0.0000  0.0000  0.0000  0.0000 </r>
       </set>
       <set comment="band 2">
        <r>  0.0000  0.1039  0.1039  0.2883  0.0000  0.0001  0.0000  0.0000  0.0000 </r>
        <r>  0.0000  0.1039  0.1039  0.2883  0.0000  0.0001  0.0000  0.0000  0.0000 </r>
       </set>
       <set comment="band 3">
        <r>  0.0000  0.2486  0.2486  0.0000  0.0001  0.0000  0.0000  0.0001  0.0000 </r>
        <r>  0.0000  0.2486  0.2486  0.0000  0.0001  0.0000  0.0000  0.0001  0.0000 </r>
       </set>
       <set comment="band 4">
        <r>  0.0000  0.2489  0.2489  0.0000  0.0001  0.0000  0.0000  0.0001  0.0000 </r>
        <r>  0.0000  0.2489  0.2489  0.0000  0.0001  0.0000  0.0000  0.0001  0.0000 </r>
       </set>
       <set comment="band 5">
        <r>  0.0000  0.1178  0.1178  0.2628  0.0000  0.0001  0.0000  0.0000  0.0000 </r>
        <r>  0.0000  0.1178  0.1178  0.2628  0.0000  0.0001  0.0000  0.0000  0.0000 </r>
       </set>
       <set comment="band 6">
        <r>  0.0000  0.1449  0.1449  0.2089  0.0000  0.0000  0.0000  0.0000  0.0000 </r>
        <r>  0.0000  0.1449  0.1449  0.2089  0.0000  0.0000  0.0000  0.0000  0.0000 </r>
       </set>
       <set comment="band 7">
        <r>  0.0460  0.0252  0.0252  0.0114  0.1266  0.0024  0.0032  0.1266  0.0096 </r>
        <r>  0.0460  0.0252  0.0252  0.0114  0.1266  0.0024  0.0032  0.1266  0.0096 </r>
       </set>
       <set comment="band 8">
        <r>  0.0269  0.0109  0.0109  0.0012  0.1524  0.0487  0.0030  0.1524  0.0089 </r>
        <r>  0.0269  0.0109  0.0109  0.0012  0.1524  0.0487  0.0030  0.1524  0.0089 </r>
       </set>
       <set comment="band 9">
        <r>  0.0000  0.0194  0.0194  0.0000  0.1695  0.0000  0.0316  0.1695  0.0105 </r>
        <r>  0.0000  0.0194  0.0194  0.0000  0.1695  0.0000  0.0316  0.1695  0.0105 </r>
       </set>
       <set comment="band 10">
        <r>  0.0000  0.0281  0.0281  0.0000  0.1424  0.0000  0.0486  0.1424  0.0162 </r>
        <r>  0.0000  0.0281  0.0281  0.0000  0.1424  0.0000  0.0486  0.1424  0.0162 </r>
       </set>
       <set comment="band 11">
        <r>  0.0063  0.0025  0.0025  0.0522  0.0083  0.3291  0.0001  0.0083  0.0002 </r>
        <r>  0.0063  0.0025  0.0025  0.0522  0.0083  0.3291  0.0001  0.0083  0.0002 </r>
       </set>
       <set comment="band 12">
        <r>  0.0019  0.0092  0.0092  0.0635  0.0020  0.2761  0.0073  0.0020  0.0218 </r>
        <r>  0.0019  0.0092  0.0092  0.0635  0.0020  0.2761  0.0073  0.0020  0.0218 </r>
       </set>
       <set comment="band 13">
        <r>  0.0000  0.0003  0.0003  0.0000  0.0450  0.0000  0.2976  0.0450  0.0992 </r>
        <r>  0.0000  0.0003  0.0003  0.0000  0.0450  0.0000  0.2976  0.0450  0.0992 </r>
       </set>
       <set comment="band 14">
        <r>  0.0000  0.0001  0.0001  0.0000  0.0288  0.0000  0.3227  0.0288  0.1076 </r>
        <r>  0.0000  0.0001  0.0001  0.0000  0.0288  0.0000  0.3227  0.0288  0.1076 </r>
       </set>
       <set comment="band 15">
        <r>  0.0005  0.0001  0.0001  0.0006  0.0171  0.0289  0.1063  0.0171  0.3190 </r>
        <r>  0.0005  0.0001  0.0001  0.0006  0.0171  0.0289  0.1063  0.0171  0.3190 </r>
       </set>
       <set comment="band 16">
        <r>  0.0004  0.0000  0.0000  0.0001  0.0103  0.0000  0.1173  0.0103  0.3519 </r>
        <r>  0.0004  0.0000  0.0000  0.0001  0.0103  0.0000  0.1173  0.0103  0.3519 </r>
       </set>
       <set comment="band 17">
        <r>  0.0297  0.0216  0.0216  0.0426  0.0915  0.1261  0.0015  0.0915  0.0044 </r>
        <r>  0.0297  0.0216  0.0216  0.0426  0.0915  0.1261  0.0015  0.0915  0.0044 </r>
       </set>
       <set comment="band 18">
        <r>  0.0210  0.0248  0.0248  0.0800  0.0612  0.1103  0.0066  0.0612  0.0199 </r>
        <r>  0.0210  0.0248  0.0248  0.0800  0.0612  0.1103  0.0066  0.0612  0.0199 </r>
       </set>
       <set comment="band 19">
        <r>  0.0000  0.0896  0.0896  0.0000  0.0849  0.0000  0.0286  0.0849  0.0095 </r>
        <r>  0.0000  0.0896  0.0896  0.0000  0.0849  0.0000  0.0286  0.0849  0.0095 </r>
       </set>
       <set comment="band 20">
        <r>  0.2321  0.0017  0.0017  0.0348  0.0264  0.0509  0.0000  0.0264  0.0001 </r>
        <r>  0.2321  0.0017  0.0017  0.0348  0.0264  0.0509  0.0000  0.0264  0.0001 </r>
       </set>
       <set comment="band 21">
        <r>  0.0000  0.0893  0.0893  0.0000  0.0826  0.0000  0.0211  0.0826  0.0070 </r>
        <r>  0.0000  0.0893  0.0893  0.0000  0.0826  0.0000  0.0211  0.0826  0.0070 </r>
       </set>
       <set comment="band 22">
        <r>  0.1600  0.0007  0.0007  0.1012  0.0255  0.0524  0.0005  0.0255  0.0016 </r>
        <r>  0.1600  0.0007  0.0007  0.1012  0.0255  0.0524  0.0005  0.0255  0.0016 </r>
       </set>
       <set comment="band 23">
        <r>  0.1179  0.0857  0.0857  0.0171  0.0121  0.0431  0.0011  0.0121  0.0032 </r>
        <r>  0.1179  0.0857  0.0857  0.0171  0.0121  0.0431  0.0011  0.0121  0.0032 </r>
       </set>
       <set comment="band 24">
        <r>  0.0729  0.0850  0.0850  0.0489  0.0226  0.0370  0.0002  0.0226  0.0007 </r>
        <r>  0.0729  0.0850  0.0850  0.0489  0.0226  0.0370  0.0002  0.0226  0.0007 </r>
       </set>
      </set>
      <set comment="kpoint 34">
       <set comment="band 1">
        <r>  0.0000  0.2224  0.0514  0.2224  0.0000  0.0001  0.0000  0.0001  0.0000 </r>
        <r>  0.0000  0.2224  0.0514  0.2224  0.0000  0.0001  0.0000  0.0001  0.0000 </r>
       </set>
       <set comment="band 2">
        <r>  0.0000  0.2481  0.0000  0.2481  0.0000  0.0001  0.0000  0.0001  0.0000 </r>
        <r>  0.0000  0.2481  0.0000  0.2481  0.0000  0.0001  0.0000  0.0001  0.0000 </r>
       </set>
       <set comment="band 3">
        <r>  0.0000  0.0376  0.4222  0.0376  0.0001  0.0000  0.0000  0.0000  0.0000 </r>
        <r>  0.0000  0.0376  0.4222  0.0376  0.0001  0.0000  0.0000  0.0000  0.0000 </r>
       </set>
       <set comment="band 4">
        <r>  0.0000  0.0258  0.4461  0.0258  0.0001  0.0000  0.0000  0.0000  0.0000 </r>
        <r>  0.0000  0.0258  0.4461  0.0258  0.0001  0.0000  0.0000  0.0000  0.0000 </r>
       </set>
       <set comment="band 5">
        <r>  0.0000  0.2491  0.0000  0.2491  0.0000  0.0001  0.0000  0.0001  0.0000 </r>
        <r>  0.0000  0.2491  0.0000  0.2491  0.0000  0.0001  0.0000  0.0001  0.0000 </r>
       </set>
       <set comment="band 6">
        <r>  0.0000  0.2116  0.0753  0.2116  0.0000  0.0000  0.0000  0.0000  0.0000 </r>
        <r>  0.0000  0.2116  0.0753  0.2116  0.0000  0.0000  0.0000  0.0000  0.0000 </r>
       </set>
       <set comment="band 7">
        <r>  0.0191  0.0005  0.0315  0.0005  0.2659  0.0360  0.0218  0.0360  0.0000 </r>
        <r>  0.0191  0.0005  0.0315  0.0005  0.2659  0.0360  0.0218  0.0360  0.0000 </r>
       </set>
       <set comment="band 8">
        <r>  0.0234  0.0027  0.0441  0.0027  0.2941  0.0011  0.0273  0.0011  0.0000 </r>
        <r>  0.0234  0.0027  0.0441  0.0027  0.2941  0.0011  0.0273  0.0011  0.0000 </r>
       </set>
       <set comment="band 9">
        <r>  0.0000  0.0139  0.0000  0.0139  0.0000  0.2000  0.0000  0.2000  0.0032 </r>
        <r>  0.0000  0.0139  0.0000  0.0139  0.0000  0.2000  0.0000  0.2000  0.0032 </r>
       </set>
       <set comment="band 10">
        <r>  0.0001  0.0137  0.0130  0.0137  0.0404  0.1616  0.0167  0.1616  0.0000 </r>
        <r>  0.0001  0.0137  0.0130  0.0137  0.0404  0.1616  0.0167  0.1616  0.0000 </r>
       </set>
       <set comment="band 11">
        <r>  0.0048  0.0441  0.0000  0.0441  0.0145  0.1384  0.0039  0.1384  0.0000 </r>
        <r>  0.0048  0.0441  0.0000  0.0441  0.0145  0.1384  0.0039  0.1384  0.0000 </r>
       </set>
       <set comment="band 12">
        <r>  0.0000  0.0469  0.0000  0.0469  0.0000  0.1399  0.0000  0.1399  0.0134 </r>
        <r>  0.0000  0.0469  0.0000  0.0469  0.0000  0.1399  0.0000  0.1399  0.0134 </r>
       </set>
       <set comment="band 13">
        <r>  0.0003  0.0000  0.0002  0.0000  0.0501  0.0026  0.4335  0.0026  0.0000 </r>
        <r>  0.0003  0.0000  0.0002  0.0000  0.0501  0.0026  0.4335  0.0026  0.0000 </r>
       </set>
       <set comment="band 14">
        <r>  0.0002  0.0000  0.0001  0.0000  0.0427  0.0008  0.4449  0.0008  0.0000 </r>
        <r>  0.0002  0.0000  0.0001  0.0000  0.0427  0.0008  0.4449  0.0008  0.0000 </r>
       </set>
       <set comment="band 15">
        <r>  0.0000  0.0001  0.0000  0.0001  0.0000  0.0101  0.0000  0.0101  0.4704 </r>
        <r>  0.0000  0.0001  0.0000  0.0001  0.0000  0.0101  0.0000  0.0101  0.4704 </r>
       </set>
       <set comment="band 16">
        <r>  0.0000  0.0000  0.0000  0.0000  0.0000  0.0022  0.0000  0.0022  0.4864 </r>
        <r>  0.0000  0.0000  0.0000  0.0000  0.0000  0.0022  0.0000  0.0022  0.4864 </r>
       </set>
       <set comment="band 17">
        <r>  0.0247  0.0518  0.0134  0.0518  0.0494  0.1096  0.0012  0.1096  0.0000 </r>
        <r>  0.0247  0.0518  0.0134  0.0518  0.0494  0.1096  0.0012  0.1096  0.0000 </r>
       </set>
       <set comment="band 18">
        <r>  0.0000  0.0794  0.0000  0.0794  0.0000  0.1149  0.0000  0.1149  0.0083 </r>
        <r>  0.0000  0.0794  0.0000  0.0794  0.0000  0.1149  0.0000  0.1149  0.0083 </r>
       </set>
       <set comment="band 19">
        <r>  0.0992  0.0059  0.0799  0.0059  0.1796  0.0017  0.0205  0.0017  0.0000 </r>
        <r>  0.0992  0.0059  0.0799  0.0059  0.1796  0.0017  0.0205  0.0017  0.0000 </r>
       </set>
       <set comment="band 20">
        <r>  0.0893  0.0268  0.0582  0.0268  0.1384  0.0142  0.0157  0.0142  0.0000 </r>
        <r>  0.0893  0.0268  0.0582  0.0268  0.1384  0.0142  0.0157  0.0142  0.0000 </r>
       </set>
       <set comment="band 21">
        <r>  0.1382  0.0378  0.0333  0.0378  0.0002  0.0587  0.0034  0.0587  0.0000 </r>
        <r>  0.1382  0.0378  0.0333  0.0378  0.0002  0.0587  0.0034  0.0587  0.0000 </r>
       </set>
       <set comment="band 22">
        <r>  0.0000  0.0874  0.0000  0.0874  0.0000  0.0867  0.0000  0.0867  0.0026 </r>
        <r>  0.0000  0.0874  0.0000  0.0874  0.0000  0.0867  0.0000  0.0867  0.0026 </r>
       </set>
       <set comment="band 23">
        <r>  0.2255  0.0023  0.1337  0.0023  0.0182  0.0013  0.0047  0.0013  0.0000 </r>
        <r>  0.2255  0.0023  0.1337  0.0023  0.0182  0.0013  0.0047  0.0013  0.0000 </r>
       </set>
       <set comment="band 24">
        <r>  0.1093  0.0463  0.0933  0.0463  0.0206  0.0285  0.0014  0.0285  0.0000 </r>
        <r>  0.1093  0.0463  0.0933  0.0463  0.0206  0.0285  0.0014  0.0285  0.0000 </r>
       </set>
      </set>
      <set comment="kpoint 35">
       <set comment="band 1">
        <r>  0.0000  0.1655  0.1655  0.1655  0.0000  0.0000  0.0000  0.0000  0.0000 </r>
        <r>  0.0000  0.1655  0.1655  0.1655  0.0000  0.0000  0.0000  0.0000  0.0000 </r>
       </set>
       <set comment="band 2">
        <r>  0.0000  0.2953  0.1856  0.0161  0.0001  0.0000  0.0000  0.0001  0.0000 </r>
        <r>  0.0000  0.2953  0.1856  0.0161  0.0001  0.0000  0.0000  0.0001  0.0000 </r>
       </set>
       <set comment="band 3">
        <r>  0.0000  0.0360  0.1457  0.3152  0.0000  0.0001  0.0000  0.0000  0.0000 </r>
        <r>  0.0000  0.0360  0.1457  0.3152  0.0000  0.0001  0.0000  0.0000  0.0000 </r>
       </set>
       <set comment="band 4">
        <r>  0.0000  0.0981  0.3292  0.0703  0.0001  0.0000  0.0000  0.0000  0.0000 </r>
        <r>  0.0000  0.0981  0.3292  0.0703  0.0001  0.0000  0.0000  0.0000  0.0000 </r>
       </set>
       <set comment="band 5">
        <r>  0.0000  0.2336  0.0025  0.2615  0.0000  0.0001  0.0000  0.0001  0.0000 </r>
        <r>  0.0000  0.2336  0.0025  0.2615  0.0000  0.0001  0.0000  0.0001  0.0000 </r>
       </set>
       <set comment="band 6">
        <r>  0.0000  0.1660  0.1660  0.1660  0.0000  0.0000  0.0000  0.0000  0.0000 </r>
        <r>  0.0000  0.1660  0.1660  0.1660  0.0000  0.0000  0.0000  0.0000  0.0000 </r>
       </set>
       <set comment="band 7">
        <r>  0.0055  0.0117  0.0117  0.0117  0.1268  0.1268  0.0000  0.1268  0.0000 </r>
        <r>  0.0055  0.0117  0.0117  0.0117  0.1268  0.1268  0.0000  0.1268  0.0000 </r>
       </set>
       <set comment="band 8">
        <r>  0.0000  0.0034  0.0294  0.0128  0.2363  0.1029  0.0050  0.0276  0.0002 </r>
        <r>  0.0000  0.0034  0.0294  0.0128  0.2363  0.1029  0.0050  0.0276  0.0002 </r>
       </set>
       <set comment="band 9">
        <r>  0.0000  0.0270  0.0010  0.0176  0.0083  0.1417  0.0002  0.2170  0.0050 </r>
        <r>  0.0000  0.0270  0.0010  0.0176  0.0083  0.1417  0.0002  0.2170  0.0050 </r>
       </set>
       <set comment="band 10">
        <r>  0.0089  0.0262  0.0262  0.0262  0.1011  0.1011  0.0000  0.1011  0.0000 </r>
        <r>  0.0089  0.0262  0.0262  0.0262  0.1011  0.1011  0.0000  0.1011  0.0000 </r>
       </set>
       <set comment="band 11">
        <r>  0.0000  0.0022  0.0275  0.0378  0.1333  0.1834  0.0050  0.0107  0.0032 </r>
        <r>  0.0000  0.0022  0.0275  0.0378  0.1333  0.1834  0.0050  0.0107  0.0032 </r>
       </set>
       <set comment="band 12">
        <r>  0.0000  0.0428  0.0175  0.0072  0.0850  0.0349  0.0032  0.2076  0.0050 </r>
        <r>  0.0000  0.0428  0.0175  0.0072  0.0850  0.0349  0.0032  0.2076  0.0050 </r>
       </set>
       <set comment="band 13">
        <r>  0.0000  0.0000  0.0000  0.0000  0.0034  0.0049  0.2036  0.0036  0.2754 </r>
        <r>  0.0000  0.0000  0.0000  0.0000  0.0034  0.0049  0.2036  0.0036  0.2754 </r>
       </set>
       <set comment="band 14">
        <r>  0.0000  0.0000  0.0000  0.0000  0.0046  0.0030  0.2754  0.0043  0.2036 </r>
        <r>  0.0000  0.0000  0.0000  0.0000  0.0046  0.0030  0.2754  0.0043  0.2036 </r>
       </set>
       <set comment="band 15">
        <r>  0.0000  0.0000  0.0000  0.0000  0.0037  0.0002  0.3671  0.0034  0.1166 </r>
        <r>  0.0000  0.0000  0.0000  0.0000  0.0037  0.0002  0.3671  0.0034  0.1166 </r>
       </set>
       <set comment="band 16">
        <r>  0.0000  0.0000  0.0000  0.0000  0.0012  0.0047  0.1166  0.0015  0.3671 </r>
        <r>  0.0000  0.0000  0.0000  0.0000  0.0012  0.0047  0.1166  0.0015  0.3671 </r>
       </set>
       <set comment="band 17">
        <r>  0.0278  0.0451  0.0451  0.0451  0.0781  0.0781  0.0000  0.0781  0.0000 </r>
        <r>  0.0278  0.0451  0.0451  0.0451  0.0781  0.0781  0.0000  0.0781  0.0000 </r>
       </set>
       <set comment="band 18">
        <r>  0.0000  0.0008  0.0928  0.0783  0.1125  0.0950  0.0042  0.0009  0.0010 </r>
        <r>  0.0000  0.0008  0.0928  0.0783  0.1125  0.0950  0.0042  0.0009  0.0010 </r>
       </set>
       <set comment="band 19">
        <r>  0.0000  0.1138  0.0218  0.0363  0.0265  0.0440  0.0010  0.1380  0.0042 </r>
        <r>  0.0000  0.1138  0.0218  0.0363  0.0265  0.0440  0.0010  0.1380  0.0042 </r>
       </set>
       <set comment="band 20">
        <r>  0.1938  0.0187  0.0187  0.0187  0.0420  0.0420  0.0000  0.0420  0.0000 </r>
        <r>  0.1938  0.0187  0.0187  0.0187  0.0420  0.0420  0.0000  0.0420  0.0000 </r>
       </set>
       <set comment="band 21">
        <r>  0.0000  0.0208  0.0420  0.1141  0.0454  0.1233  0.0013  0.0225  0.0023 </r>
        <r>  0.0000  0.0208  0.0420  0.1141  0.0454  0.1233  0.0013  0.0225  0.0023 </r>
       </set>
       <set comment="band 22">
        <r>  0.0000  0.0971  0.0759  0.0039  0.0820  0.0042  0.0023  0.1050  0.0013 </r>
        <r>  0.0000  0.0971  0.0759  0.0039  0.0820  0.0042  0.0023  0.1050  0.0013 </r>
       </set>
       <set comment="band 23">
        <r>  0.3402  0.0133  0.0133  0.0133  0.0007  0.0007  0.0000  0.0007  0.0000 </r>
        <r>  0.3402  0.0133  0.0133  0.0133  0.0007  0.0007  0.0000  0.0007  0.0000 </r>
       </set>
       <set comment="band 24">
        <r>  0.1770  0.0434  0.0434  0.0434  0.0227  0.0227  0.0000  0.0227  0.0000 </r>
        <r>  0.1770  0.0434  0.0434  0.0434  0.0227  0.0227  0.0000  0.0227  0.0000 </r>
       </set>
      </set>
     </set>
    </set>
   </array>
  </projected>
 </calculation>
 <structure name="finalpos" >
  <crystal>
   <varray name="basis" >
    <v>       2.84005200       0.00000000       0.00000000 </v>
    <v>       0.00000000       2.84005200       0.00000000 </v>
    <v>       0.00000000       0.00000000       2.84005200 </v>
   </varray>
   <i name="volume">     22.90756226 </i>
   <varray name="rec_basis" >
    <v>       0.35210623       0.00000000       0.00000000 </v>
    <v>       0.00000000       0.35210623       0.00000000 </v>
    <v>       0.00000000       0.00000000       0.35210623 </v>
   </varray>
  </crystal>
  <varray name="positions" >
   <v>       0.00000000       0.00000000       0.00000000 </v>
   <v>       0.50000000       0.50000000       0.50000000 </v>
  </varray>
 </structure>
</modeling>
