=========================================
SLURM_JOB_ID = 63599671
SLURM_JOB_NODELIST = lnode27
SLURM_GPUS = 
SLURM_CPUS_ON_NODE = 8
SLURM_JOB_PARTITION = lenovo
SLURM_TASK_PID = 1589269
CUDA_VISIBLE_DEVICES = 
==========================================
 running on    8 total cores
 distrk:  each k-point on    8 cores,    1 groups
 distr:  one band on    4 cores,    2 groups
 using from now: INCAR     
 vasp.5.4.4.18Apr17-6-g9f103f2a35 (build Apr 28 2018 00:24:27) complex          
  
 POSCAR found type information on POSCAR  Co
 POSCAR found :  1 types and       2 ions
 scaLAPACK will be used
 LDA part: xc-table for Pade appr. of Perdew
 WARNING: stress and forces are not correct
 POSCAR, INCAR and KPOINTS ok, starting setup
 FFT: planning ...
 WAVECAR not read
 charge-density read from file: unknown                                 
 magnetization density read from file 1
 entering main loop
       N       E                     dE             d eps       ncg     rms          rms(c)
DAV:   1     0.526943538200E+02    0.52694E+02   -0.54353E+03  5850   0.797E+02
DAV:   2    -0.101474958087E+02   -0.62842E+02   -0.56907E+02  5544   0.169E+02
DAV:   3    -0.118687375416E+02   -0.17212E+01   -0.16961E+01  6244   0.338E+01
DAV:   4    -0.118920719878E+02   -0.23334E-01   -0.23327E-01  6828   0.343E+00
DAV:   5    -0.118926091513E+02   -0.53716E-03   -0.53715E-03  6408   0.464E-01
DAV:   6    -0.118926390803E+02   -0.29929E-04   -0.29930E-04  7042   0.843E-02
DAV:   7    -0.118926393455E+02   -0.26519E-06   -0.26519E-06  5092   0.651E-03
   1 F= -.11892639E+02 E0= -.11873876E+02  d E =-.375262E-01  mag=     3.2116
 writing wavefunctions
