       N       E                     dE             d eps       ncg     rms          rms(c)
DAV:   1     0.526943538200E+02    0.52694E+02   -0.54353E+03  5850   0.797E+02
DAV:   2    -0.101474958087E+02   -0.62842E+02   -0.56907E+02  5544   0.169E+02
DAV:   3    -0.118687375416E+02   -0.17212E+01   -0.16961E+01  6244   0.338E+01
DAV:   4    -0.118920719878E+02   -0.23334E-01   -0.23327E-01  6828   0.343E+00
DAV:   5    -0.118926091513E+02   -0.53716E-03   -0.53715E-03  6408   0.464E-01
DAV:   6    -0.118926390803E+02   -0.29929E-04   -0.29930E-04  7042   0.843E-02
DAV:   7    -0.118926393455E+02   -0.26519E-06   -0.26519E-06  5092   0.651E-03
   1 F= -.11892639E+02 E0= -.11873876E+02  d E =-.375262E-01  mag=     3.2116
