=========================================
SLURM_JOB_ID = 63601876
SLURM_JOB_NODELIST = lnode18
SLURM_GPUS = 
SLURM_CPUS_ON_NODE = 8
SLURM_JOB_PARTITION = lenovo
SLURM_TASK_PID = 227124
CUDA_VISIBLE_DEVICES = 
==========================================
 running on    8 total cores
 distrk:  each k-point on    8 cores,    1 groups
 distr:  one band on    4 cores,    2 groups
 using from now: INCAR     
 vasp.5.4.4.18Apr17-6-g9f103f2a35 (build Apr 28 2018 00:24:27) complex          
  
 POSCAR found type information on POSCAR  Ni
 POSCAR found :  1 types and       4 ions
 scaLAPACK will be used
 LDA part: xc-table for Pade appr. of Perdew
 POSCAR, INCAR and KPOINTS ok, starting setup
 FFT: planning ...
 WAVECAR not read
 entering main loop
       N       E                     dE             d eps       ncg     rms          rms(c)
DAV:   1     0.765290294307E+03    0.76529E+03   -0.34569E+04  4368   0.162E+03
DAV:   2     0.306784034140E+02   -0.73461E+03   -0.69320E+03  3936   0.523E+02
DAV:   3    -0.994579490884E+01   -0.40624E+02   -0.39283E+02  4248   0.141E+02
DAV:   4    -0.105350104843E+02   -0.58922E+00   -0.58851E+00  4248   0.172E+01
DAV:   5    -0.105470154057E+02   -0.12005E-01   -0.12005E-01  4336   0.238E+00    0.547E+01
DAV:   6    -0.202932461795E+02   -0.97462E+01   -0.35509E+01  4216   0.710E+01    0.233E+01
DAV:   7    -0.172357508305E+02    0.30575E+01   -0.12377E+01  4160   0.405E+01    0.349E+00
DAV:   8    -0.171511710361E+02    0.84580E-01   -0.18879E-01  4360   0.488E+00    0.140E+00
DAV:   9    -0.171477211924E+02    0.34498E-02   -0.75939E-03  4248   0.527E-01    0.643E-01
DAV:  10    -0.171440558891E+02    0.36653E-02   -0.79607E-04  4752   0.263E-01    0.181E-01
DAV:  11    -0.171438869742E+02    0.16891E-03   -0.42497E-04  4144   0.169E-01    0.857E-02
DAV:  12    -0.171439032990E+02   -0.16325E-04   -0.34759E-05  4232   0.485E-02    0.501E-02
DAV:  13    -0.171439075460E+02   -0.42470E-05   -0.38389E-06  3824   0.186E-02    0.141E-02
DAV:  14    -0.171439077276E+02   -0.18157E-06   -0.78572E-07  2400   0.806E-03
   1 F= -.17143908E+02 E0= -.17074186E+02  d E =-.139444E+00  mag=     2.4090
 writing wavefunctions
