=========================================
SLURM_JOB_ID = 63457711
SLURM_JOB_NODELIST = lnode34
SLURM_GPUS = 
SLURM_CPUS_ON_NODE = 8
SLURM_JOB_PARTITION = lenovo
SLURM_TASK_PID = 389390
CUDA_VISIBLE_DEVICES = 
==========================================
 running on    8 total cores
 distrk:  each k-point on    8 cores,    1 groups
 distr:  one band on    4 cores,    2 groups
 using from now: INCAR     
 vasp.5.4.4.18Apr17-6-g9f103f2a35 (build Apr 28 2018 00:24:27) complex          
  
 POSCAR found type information on POSCAR  Eu
 POSCAR found :  1 types and       4 ions
 scaLAPACK will be used

 ----------------------------------------------------------------------------- 
|                                                                             |
|  ADVICE TO THIS USER RUNNING 'VASP/VAMP'   (HEAR YOUR MASTER'S VOICE ...):  |
|                                                                             |
|      You have a (more or less) 'small supercell' and for smaller cells      |
|      it is recommended  to use the reciprocal-space projection scheme!      |
|      The real space optimization is not  efficient for small cells and it   |
|      is also less accurate ...                                              |
|      Therefore set LREAL=.FALSE. in the  INCAR file                         |
|                                                                             |
 ----------------------------------------------------------------------------- 

 LDA part: xc-table for Pade appr. of Perdew
 generate k-points for:   18   10   11
 POSCAR, INCAR and KPOINTS ok, starting setup
 FFT: planning ...
 WAVECAR not read
 entering main loop
       N       E                     dE             d eps       ncg     rms          rms(c)
DAV:   1     0.856119759467E+03    0.85612E+03   -0.25334E+04103288   0.270E+03
DAV:   2     0.203111228392E+03   -0.65301E+03   -0.49326E+03109160   0.392E+02
DAV:   3    -0.180745052589E+01   -0.20492E+03   -0.19648E+03 88896   0.221E+02
DAV:   4    -0.270590641539E+02   -0.25252E+02   -0.23902E+02124104   0.691E+01
DAV:   5    -0.295319849687E+02   -0.24729E+01   -0.23862E+01153112   0.229E+01    0.224E+01
DAV:   6    -0.442216731823E+02   -0.14690E+02   -0.57393E+01107104   0.708E+01    0.302E+01
DAV:   7    -0.425995026139E+02    0.16222E+01   -0.90243E+00110544   0.186E+01    0.107E+01
DAV:   8    -0.410122501703E+02    0.15873E+01   -0.33097E+00118936   0.139E+01    0.341E+00
DAV:   9    -0.410745038828E+02   -0.62254E-01   -0.16713E+00120236   0.104E+01    0.377E+00
DAV:  10    -0.410522993435E+02    0.22205E-01   -0.32669E-01130768   0.390E+00    0.121E+00
DAV:  11    -0.411201774605E+02   -0.67878E-01   -0.55239E-02155612   0.112E+00    0.616E-01
DAV:  12    -0.411603067250E+02   -0.40129E-01   -0.37033E-02119808   0.900E-01    0.580E-01
DAV:  13    -0.411639391880E+02   -0.36325E-02   -0.15578E-02121940   0.858E-01    0.144E-01
DAV:  14    -0.411653452331E+02   -0.14060E-02   -0.65129E-03140776   0.260E-01    0.109E-01
DAV:  15    -0.411653020799E+02    0.43153E-04   -0.68448E-04138072   0.106E-01    0.972E-02
DAV:  16    -0.411652961029E+02    0.59771E-05   -0.47174E-04133316   0.151E-01    0.277E-02
DAV:  17    -0.411653911584E+02   -0.95056E-04   -0.22221E-04125224   0.449E-02    0.644E-03
DAV:  18    -0.411653963843E+02   -0.52259E-05   -0.21171E-05148448   0.182E-02    0.246E-03
DAV:  19    -0.411653945573E+02    0.18270E-05   -0.15935E-06127776   0.543E-03    0.121E-03
DAV:  20    -0.411653955520E+02   -0.99475E-06   -0.33101E-07 88464   0.265E-03    0.557E-04
DAV:  21    -0.411653968020E+02   -0.12500E-05   -0.92106E-08 60992   0.238E-03    0.563E-04
DAV:  22    -0.411653966908E+02    0.11120E-06   -0.23145E-08 50240   0.133E-03    0.140E-04
DAV:  23    -0.411653967727E+02   -0.81869E-07   -0.13185E-08 49672   0.867E-04
   1 F= -.41165397E+02 E0= -.41165397E+02  d E =0.000000E+00  mag=    30.0161
