       N       E                     dE             d eps       ncg     rms          rms(c)
DAV:   1     0.727604892941E+03    0.72760E+03   -0.34579E+04  4384   0.160E+03
DAV:   2     0.124844320918E+02   -0.71512E+03   -0.67836E+03  3992   0.522E+02
DAV:   3    -0.261450118436E+02   -0.38629E+02   -0.36439E+02  4240   0.137E+02
DAV:   4    -0.267138517968E+02   -0.56884E+00   -0.56813E+00  4240   0.170E+01
DAV:   5    -0.267255760088E+02   -0.11724E-01   -0.11724E-01  4320   0.235E+00
DAV:   6    -0.267259983820E+02   -0.42237E-03   -0.42237E-03  4496   0.437E-01
DAV:   7    -0.267260138421E+02   -0.15460E-04   -0.15460E-04  4264   0.779E-02
DAV:   8    -0.267260145605E+02   -0.71835E-06   -0.71789E-06  3920   0.166E-02
   1 F= -.26726015E+02 E0= -.26657800E+02  d E =-.136428E+00  mag=     2.3812
