<?xml version="1.0" encoding="ISO-8859-1"?>
<modeling>
 <generator>
  <i name="program" type="string">vasp </i>
  <i name="version" type="string">5.4.4.18Apr17-6-g9f103f2a35  </i>
  <i name="subversion" type="string">(build Apr 28 2018 00:24:27) complex            parallel </i>
  <i name="platform" type="string">LinuxIFC </i>
  <i name="date" type="string">2021 04 15 </i>
  <i name="time" type="string">22:17:53 </i>
 </generator>
 <incar>
  <i type="string" name="PREC">accurate</i>
  <i type="string" name="ALGO"> Fast</i>
  <i type="int" name="ISPIN">     2</i>
  <i type="int" name="ICHARG">     2</i>
  <i type="int" name="NELM">   100</i>
  <i type="int" name="IBRION">     2</i>
  <i name="EDIFF">      0.00010000</i>
  <i name="EDIFFG">     -0.01000000</i>
  <i type="int" name="NSW">    99</i>
  <i type="int" name="ISIF">     4</i>
  <i name="SYMPREC">      0.00000001</i>
  <i name="ENCUT">    520.00000000</i>
  <i name="POTIM">      0.30000000</i>
  <v name="MAGMOM">    -10.00000000    -10.00000000     10.00000000     10.00000000      0.60000000      0.60000000      0.60000000      0.60000000</v>
  <i type="string" name="LREAL"> Auto</i>
  <i type="int" name="ISMEAR">     0</i>
  <i name="SIGMA">      0.01000000</i>
  <i type="int" name="LMAXMIX">     4</i>
  <i type="logical" name="LWAVE"> F  </i>
  <i type="logical" name="LCHARG"> F  </i>
  <i type="int" name="LORBIT">    11</i>
  <i type="logical" name="LASPH"> T  </i>
  <v type="int" name="KPOINT_BSE">    -1     0     0     0</v>
  <i type="int" name="NELM">   100</i>
  <i type="logical" name="LASPH"> T  </i>
 </incar>
 <structure name="primitive_cell" >
  <crystal>
   <varray name="basis" >
    <v>       0.00000800      -2.07416200       2.93333400 </v>
    <v>       3.59264600       0.00000000       0.00000000 </v>
    <v>       0.00026400       8.29679200       5.86666800 </v>
   </varray>
   <i name="volume">    131.15199204 </i>
   <varray name="rec_basis" >
    <v>       0.00000000      -0.16070561       0.22727399 </v>
    <v>       0.27834638      -0.00000555      -0.00000468 </v>
    <v>       0.00000000       0.08035281       0.05681751 </v>
   </varray>
  </crystal>
  <varray name="positions" >
   <v>       0.00000000       0.00000000      -0.50000000 </v>
   <v>       0.00000000       0.00000000      -0.25000000 </v>
   <v>       0.00000000       0.00000000       0.25000000 </v>
   <v>      -0.50000000      -0.50000000      -0.50000000 </v>
   <v>      -0.50000000      -0.50000000      -0.25000000 </v>
   <v>      -0.50000000      -0.50000000       0.25000000 </v>
   <v>       0.00000000       0.00000000       0.00000000 </v>
   <v>      -0.50000000      -0.50000000       0.00000000 </v>
  </varray>
 </structure>
 <varray name="primitive_index" >
  <v type="int" >        1 </v>
  <v type="int" >        5 </v>
  <v type="int" >        7 </v>
  <v type="int" >        8 </v>
  <v type="int" >        2 </v>
  <v type="int" >        4 </v>
  <v type="int" >        3 </v>
  <v type="int" >        6 </v>
 </varray>
 <kpoints>
  <generation param="Gamma">
   <v type="int" name="divisions">      11       11        4 </v>
   <v name="usershift">      0.00000000       0.00000000       0.00000000 </v>
   <v name="genvec1">      0.09090909       0.00000000       0.00000000 </v>
   <v name="genvec2">      0.00000000       0.09090909      -0.00000000 </v>
   <v name="genvec3">      0.00000000       0.00000000       0.25000000 </v>
   <v name="shift">      0.00000000       0.00000000       0.00000000 </v>
  </generation>
  <varray name="kpointlist" >
   <v>       0.00000000       0.00000000       0.00000000 </v>
   <v>       0.09090909       0.00000000       0.00000000 </v>
   <v>       0.18181818       0.00000000       0.00000000 </v>
   <v>       0.27272727       0.00000000       0.00000000 </v>
   <v>       0.36363636       0.00000000       0.00000000 </v>
   <v>       0.45454545       0.00000000       0.00000000 </v>
   <v>      -0.00000000       0.09090909       0.00000000 </v>
   <v>       0.09090909       0.09090909       0.00000000 </v>
   <v>       0.18181818       0.09090909       0.00000000 </v>
   <v>       0.27272727       0.09090909       0.00000000 </v>
   <v>       0.36363636       0.09090909       0.00000000 </v>
   <v>       0.45454545       0.09090909      -0.00000000 </v>
   <v>      -0.45454545       0.09090909      -0.00000000 </v>
   <v>      -0.36363636       0.09090909      -0.00000000 </v>
   <v>      -0.27272727       0.09090909       0.00000000 </v>
   <v>      -0.18181818       0.09090909      -0.00000000 </v>
   <v>      -0.09090909       0.09090909       0.00000000 </v>
   <v>      -0.00000000       0.18181818       0.00000000 </v>
   <v>       0.09090909       0.18181818       0.00000000 </v>
   <v>       0.18181818       0.18181818       0.00000000 </v>
   <v>       0.27272727       0.18181818      -0.00000000 </v>
   <v>       0.36363636       0.18181818       0.00000000 </v>
   <v>       0.45454545       0.18181818       0.00000000 </v>
   <v>      -0.45454545       0.18181818      -0.00000000 </v>
   <v>      -0.36363636       0.18181818      -0.00000000 </v>
   <v>      -0.27272727       0.18181818      -0.00000000 </v>
   <v>      -0.18181818       0.18181818       0.00000000 </v>
   <v>      -0.09090909       0.18181818       0.00000000 </v>
   <v>      -0.00000000       0.27272727       0.00000000 </v>
   <v>       0.09090909       0.27272727       0.00000000 </v>
   <v>       0.18181818       0.27272727      -0.00000000 </v>
   <v>       0.27272727       0.27272727       0.00000000 </v>
   <v>       0.36363636       0.27272727       0.00000000 </v>
   <v>       0.45454545       0.27272727      -0.00000000 </v>
   <v>      -0.45454545       0.27272727      -0.00000000 </v>
   <v>      -0.36363636       0.27272727      -0.00000000 </v>
   <v>      -0.27272727       0.27272727       0.00000000 </v>
   <v>      -0.18181818       0.27272727      -0.00000000 </v>
   <v>      -0.09090909       0.27272727       0.00000000 </v>
   <v>      -0.00000000       0.36363636       0.00000000 </v>
   <v>       0.09090909       0.36363636       0.00000000 </v>
   <v>       0.18181818       0.36363636       0.00000000 </v>
   <v>       0.27272727       0.36363636       0.00000000 </v>
   <v>       0.36363636       0.36363636       0.00000000 </v>
   <v>       0.45454545       0.36363636      -0.00000000 </v>
   <v>      -0.45454545       0.36363636      -0.00000000 </v>
   <v>      -0.36363636       0.36363636       0.00000000 </v>
   <v>      -0.27272727       0.36363636       0.00000000 </v>
   <v>      -0.18181818       0.36363636       0.00000000 </v>
   <v>      -0.09090909       0.36363636       0.00000000 </v>
   <v>       0.00000000       0.45454545       0.00000000 </v>
   <v>       0.09090909       0.45454545       0.00000000 </v>
   <v>       0.18181818       0.45454545       0.00000000 </v>
   <v>       0.27272727       0.45454545       0.00000000 </v>
   <v>       0.36363636       0.45454545       0.00000000 </v>
   <v>       0.45454545       0.45454545       0.00000000 </v>
   <v>      -0.45454545       0.45454545      -0.00000000 </v>
   <v>      -0.36363636       0.45454545      -0.00000000 </v>
   <v>      -0.27272727       0.45454545       0.00000000 </v>
   <v>      -0.18181818       0.45454545       0.00000000 </v>
   <v>      -0.09090909       0.45454545       0.00000000 </v>
   <v>       0.00000000       0.00000000       0.25000000 </v>
   <v>       0.09090909       0.00000000       0.25000000 </v>
   <v>       0.18181818       0.00000000       0.25000000 </v>
   <v>       0.27272727       0.00000000       0.25000000 </v>
   <v>       0.36363636       0.00000000       0.25000000 </v>
   <v>       0.45454545       0.00000000       0.25000000 </v>
   <v>      -0.45454545       0.00000000       0.25000000 </v>
   <v>      -0.36363636       0.00000000       0.25000000 </v>
   <v>      -0.27272727       0.00000000       0.25000000 </v>
   <v>      -0.18181818       0.00000000       0.25000000 </v>
   <v>      -0.09090909       0.00000000       0.25000000 </v>
   <v>       0.00000000       0.09090909       0.25000000 </v>
   <v>       0.09090909       0.09090909       0.25000000 </v>
   <v>       0.18181818       0.09090909       0.25000000 </v>
   <v>       0.27272727       0.09090909       0.25000000 </v>
   <v>       0.36363636       0.09090909       0.25000000 </v>
   <v>       0.45454545       0.09090909       0.25000000 </v>
   <v>      -0.45454545       0.09090909       0.25000000 </v>
   <v>      -0.36363636       0.09090909       0.25000000 </v>
   <v>      -0.27272727       0.09090909       0.25000000 </v>
   <v>      -0.18181818       0.09090909       0.25000000 </v>
   <v>      -0.09090909       0.09090909       0.25000000 </v>
   <v>       0.00000000       0.18181818       0.25000000 </v>
   <v>       0.09090909       0.18181818       0.25000000 </v>
   <v>       0.18181818       0.18181818       0.25000000 </v>
   <v>       0.27272727       0.18181818       0.25000000 </v>
   <v>       0.36363636       0.18181818       0.25000000 </v>
   <v>       0.45454545       0.18181818       0.25000000 </v>
   <v>      -0.45454545       0.18181818       0.25000000 </v>
   <v>      -0.36363636       0.18181818       0.25000000 </v>
   <v>      -0.27272727       0.18181818       0.25000000 </v>
   <v>      -0.18181818       0.18181818       0.25000000 </v>
   <v>      -0.09090909       0.18181818       0.25000000 </v>
   <v>       0.00000000       0.27272727       0.25000000 </v>
   <v>       0.09090909       0.27272727       0.25000000 </v>
   <v>       0.18181818       0.27272727       0.25000000 </v>
   <v>       0.27272727       0.27272727       0.25000000 </v>
   <v>       0.36363636       0.27272727       0.25000000 </v>
   <v>       0.45454545       0.27272727       0.25000000 </v>
   <v>      -0.45454545       0.27272727       0.25000000 </v>
   <v>      -0.36363636       0.27272727       0.25000000 </v>
   <v>      -0.27272727       0.27272727       0.25000000 </v>
   <v>      -0.18181818       0.27272727       0.25000000 </v>
   <v>      -0.09090909       0.27272727       0.25000000 </v>
   <v>       0.00000000       0.36363636       0.25000000 </v>
   <v>       0.09090909       0.36363636       0.25000000 </v>
   <v>       0.18181818       0.36363636       0.25000000 </v>
   <v>       0.27272727       0.36363636       0.25000000 </v>
   <v>       0.36363636       0.36363636       0.25000000 </v>
   <v>       0.45454545       0.36363636       0.25000000 </v>
   <v>      -0.45454545       0.36363636       0.25000000 </v>
   <v>      -0.36363636       0.36363636       0.25000000 </v>
   <v>      -0.27272727       0.36363636       0.25000000 </v>
   <v>      -0.18181818       0.36363636       0.25000000 </v>
   <v>      -0.09090909       0.36363636       0.25000000 </v>
   <v>       0.00000000       0.45454545       0.25000000 </v>
   <v>       0.09090909       0.45454545       0.25000000 </v>
   <v>       0.18181818       0.45454545       0.25000000 </v>
   <v>       0.27272727       0.45454545       0.25000000 </v>
   <v>       0.36363636       0.45454545       0.25000000 </v>
   <v>       0.45454545       0.45454545       0.25000000 </v>
   <v>      -0.45454545       0.45454545       0.25000000 </v>
   <v>      -0.36363636       0.45454545       0.25000000 </v>
   <v>      -0.27272727       0.45454545       0.25000000 </v>
   <v>      -0.18181818       0.45454545       0.25000000 </v>
   <v>      -0.09090909       0.45454545       0.25000000 </v>
   <v>       0.00000000      -0.45454545       0.25000000 </v>
   <v>       0.09090909      -0.45454545       0.25000000 </v>
   <v>       0.18181818      -0.45454545       0.25000000 </v>
   <v>       0.27272727      -0.45454545       0.25000000 </v>
   <v>       0.36363636      -0.45454545       0.25000000 </v>
   <v>       0.45454545      -0.45454545       0.25000000 </v>
   <v>      -0.45454545      -0.45454545       0.25000000 </v>
   <v>      -0.36363636      -0.45454545       0.25000000 </v>
   <v>      -0.27272727      -0.45454545       0.25000000 </v>
   <v>      -0.18181818      -0.45454545       0.25000000 </v>
   <v>      -0.09090909      -0.45454545       0.25000000 </v>
   <v>       0.00000000      -0.36363636       0.25000000 </v>
   <v>       0.09090909      -0.36363636       0.25000000 </v>
   <v>       0.18181818      -0.36363636       0.25000000 </v>
   <v>       0.27272727      -0.36363636       0.25000000 </v>
   <v>       0.36363636      -0.36363636       0.25000000 </v>
   <v>       0.45454545      -0.36363636       0.25000000 </v>
   <v>      -0.45454545      -0.36363636       0.25000000 </v>
   <v>      -0.36363636      -0.36363636       0.25000000 </v>
   <v>      -0.27272727      -0.36363636       0.25000000 </v>
   <v>      -0.18181818      -0.36363636       0.25000000 </v>
   <v>      -0.09090909      -0.36363636       0.25000000 </v>
   <v>       0.00000000      -0.27272727       0.25000000 </v>
   <v>       0.09090909      -0.27272727       0.25000000 </v>
   <v>       0.18181818      -0.27272727       0.25000000 </v>
   <v>       0.27272727      -0.27272727       0.25000000 </v>
   <v>       0.36363636      -0.27272727       0.25000000 </v>
   <v>       0.45454545      -0.27272727       0.25000000 </v>
   <v>      -0.45454545      -0.27272727       0.25000000 </v>
   <v>      -0.36363636      -0.27272727       0.25000000 </v>
   <v>      -0.27272727      -0.27272727       0.25000000 </v>
   <v>      -0.18181818      -0.27272727       0.25000000 </v>
   <v>      -0.09090909      -0.27272727       0.25000000 </v>
   <v>       0.00000000      -0.18181818       0.25000000 </v>
   <v>       0.09090909      -0.18181818       0.25000000 </v>
   <v>       0.18181818      -0.18181818       0.25000000 </v>
   <v>       0.27272727      -0.18181818       0.25000000 </v>
   <v>       0.36363636      -0.18181818       0.25000000 </v>
   <v>       0.45454545      -0.18181818       0.25000000 </v>
   <v>      -0.45454545      -0.18181818       0.25000000 </v>
   <v>      -0.36363636      -0.18181818       0.25000000 </v>
   <v>      -0.27272727      -0.18181818       0.25000000 </v>
   <v>      -0.18181818      -0.18181818       0.25000000 </v>
   <v>      -0.09090909      -0.18181818       0.25000000 </v>
   <v>       0.00000000      -0.09090909       0.25000000 </v>
   <v>       0.09090909      -0.09090909       0.25000000 </v>
   <v>       0.18181818      -0.09090909       0.25000000 </v>
   <v>       0.27272727      -0.09090909       0.25000000 </v>
   <v>       0.36363636      -0.09090909       0.25000000 </v>
   <v>       0.45454545      -0.09090909       0.25000000 </v>
   <v>      -0.45454545      -0.09090909       0.25000000 </v>
   <v>      -0.36363636      -0.09090909       0.25000000 </v>
   <v>      -0.27272727      -0.09090909       0.25000000 </v>
   <v>      -0.18181818      -0.09090909       0.25000000 </v>
   <v>      -0.09090909      -0.09090909       0.25000000 </v>
   <v>       0.00000000       0.00000000       0.50000000 </v>
   <v>       0.09090909       0.00000000       0.50000000 </v>
   <v>       0.18181818       0.00000000       0.50000000 </v>
   <v>       0.27272727       0.00000000       0.50000000 </v>
   <v>       0.36363636       0.00000000       0.50000000 </v>
   <v>       0.45454545       0.00000000       0.50000000 </v>
   <v>       0.00000000       0.09090909       0.50000000 </v>
   <v>       0.09090909       0.09090909       0.50000000 </v>
   <v>       0.18181818       0.09090909       0.50000000 </v>
   <v>       0.27272727       0.09090909       0.50000000 </v>
   <v>       0.36363636       0.09090909       0.50000000 </v>
   <v>       0.45454545       0.09090909       0.50000000 </v>
   <v>      -0.45454545       0.09090909       0.50000000 </v>
   <v>      -0.36363636       0.09090909       0.50000000 </v>
   <v>      -0.27272727       0.09090909       0.50000000 </v>
   <v>      -0.18181818       0.09090909       0.50000000 </v>
   <v>      -0.09090909       0.09090909       0.50000000 </v>
   <v>       0.00000000       0.18181818       0.50000000 </v>
   <v>       0.09090909       0.18181818       0.50000000 </v>
   <v>       0.18181818       0.18181818       0.50000000 </v>
   <v>       0.27272727       0.18181818       0.50000000 </v>
   <v>       0.36363636       0.18181818       0.50000000 </v>
   <v>       0.45454545       0.18181818       0.50000000 </v>
   <v>      -0.45454545       0.18181818       0.50000000 </v>
   <v>      -0.36363636       0.18181818       0.50000000 </v>
   <v>      -0.27272727       0.18181818       0.50000000 </v>
   <v>      -0.18181818       0.18181818       0.50000000 </v>
   <v>      -0.09090909       0.18181818       0.50000000 </v>
   <v>       0.00000000       0.27272727       0.50000000 </v>
   <v>       0.09090909       0.27272727       0.50000000 </v>
   <v>       0.18181818       0.27272727       0.50000000 </v>
   <v>       0.27272727       0.27272727       0.50000000 </v>
   <v>       0.36363636       0.27272727       0.50000000 </v>
   <v>       0.45454545       0.27272727       0.50000000 </v>
   <v>      -0.45454545       0.27272727       0.50000000 </v>
   <v>      -0.36363636       0.27272727       0.50000000 </v>
   <v>      -0.27272727       0.27272727       0.50000000 </v>
   <v>      -0.18181818       0.27272727       0.50000000 </v>
   <v>      -0.09090909       0.27272727       0.50000000 </v>
   <v>       0.00000000       0.36363636       0.50000000 </v>
   <v>       0.09090909       0.36363636       0.50000000 </v>
   <v>       0.18181818       0.36363636       0.50000000 </v>
   <v>       0.27272727       0.36363636       0.50000000 </v>
   <v>       0.36363636       0.36363636       0.50000000 </v>
   <v>       0.45454545       0.36363636       0.50000000 </v>
   <v>      -0.45454545       0.36363636       0.50000000 </v>
   <v>      -0.36363636       0.36363636       0.50000000 </v>
   <v>      -0.27272727       0.36363636       0.50000000 </v>
   <v>      -0.18181818       0.36363636       0.50000000 </v>
   <v>      -0.09090909       0.36363636       0.50000000 </v>
   <v>       0.00000000       0.45454545       0.50000000 </v>
   <v>       0.09090909       0.45454545       0.50000000 </v>
   <v>       0.18181818       0.45454545       0.50000000 </v>
   <v>       0.27272727       0.45454545       0.50000000 </v>
   <v>       0.36363636       0.45454545       0.50000000 </v>
   <v>       0.45454545       0.45454545       0.50000000 </v>
   <v>      -0.45454545       0.45454545       0.50000000 </v>
   <v>      -0.36363636       0.45454545       0.50000000 </v>
   <v>      -0.27272727       0.45454545       0.50000000 </v>
   <v>      -0.18181818       0.45454545       0.50000000 </v>
   <v>      -0.09090909       0.45454545       0.50000000 </v>
  </varray>
  <varray name="weights" >
   <v>       0.00206612 </v>
   <v>       0.00413223 </v>
   <v>       0.00413223 </v>
   <v>       0.00413223 </v>
   <v>       0.00413223 </v>
   <v>       0.00413223 </v>
   <v>       0.00413223 </v>
   <v>       0.00413223 </v>
   <v>       0.00413223 </v>
   <v>       0.00413223 </v>
   <v>       0.00413223 </v>
   <v>       0.00413223 </v>
   <v>       0.00413223 </v>
   <v>       0.00413223 </v>
   <v>       0.00413223 </v>
   <v>       0.00413223 </v>
   <v>       0.00413223 </v>
   <v>       0.00413223 </v>
   <v>       0.00413223 </v>
   <v>       0.00413223 </v>
   <v>       0.00413223 </v>
   <v>       0.00413223 </v>
   <v>       0.00413223 </v>
   <v>       0.00413223 </v>
   <v>       0.00413223 </v>
   <v>       0.00413223 </v>
   <v>       0.00413223 </v>
   <v>       0.00413223 </v>
   <v>       0.00413223 </v>
   <v>       0.00413223 </v>
   <v>       0.00413223 </v>
   <v>       0.00413223 </v>
   <v>       0.00413223 </v>
   <v>       0.00413223 </v>
   <v>       0.00413223 </v>
   <v>       0.00413223 </v>
   <v>       0.00413223 </v>
   <v>       0.00413223 </v>
   <v>       0.00413223 </v>
   <v>       0.00413223 </v>
   <v>       0.00413223 </v>
   <v>       0.00413223 </v>
   <v>       0.00413223 </v>
   <v>       0.00413223 </v>
   <v>       0.00413223 </v>
   <v>       0.00413223 </v>
   <v>       0.00413223 </v>
   <v>       0.00413223 </v>
   <v>       0.00413223 </v>
   <v>       0.00413223 </v>
   <v>       0.00413223 </v>
   <v>       0.00413223 </v>
   <v>       0.00413223 </v>
   <v>       0.00413223 </v>
   <v>       0.00413223 </v>
   <v>       0.00413223 </v>
   <v>       0.00413223 </v>
   <v>       0.00413223 </v>
   <v>       0.00413223 </v>
   <v>       0.00413223 </v>
   <v>       0.00413223 </v>
   <v>       0.00413223 </v>
   <v>       0.00413223 </v>
   <v>       0.00413223 </v>
   <v>       0.00413223 </v>
   <v>       0.00413223 </v>
   <v>       0.00413223 </v>
   <v>       0.00413223 </v>
   <v>       0.00413223 </v>
   <v>       0.00413223 </v>
   <v>       0.00413223 </v>
   <v>       0.00413223 </v>
   <v>       0.00413223 </v>
   <v>       0.00413223 </v>
   <v>       0.00413223 </v>
   <v>       0.00413223 </v>
   <v>       0.00413223 </v>
   <v>       0.00413223 </v>
   <v>       0.00413223 </v>
   <v>       0.00413223 </v>
   <v>       0.00413223 </v>
   <v>       0.00413223 </v>
   <v>       0.00413223 </v>
   <v>       0.00413223 </v>
   <v>       0.00413223 </v>
   <v>       0.00413223 </v>
   <v>       0.00413223 </v>
   <v>       0.00413223 </v>
   <v>       0.00413223 </v>
   <v>       0.00413223 </v>
   <v>       0.00413223 </v>
   <v>       0.00413223 </v>
   <v>       0.00413223 </v>
   <v>       0.00413223 </v>
   <v>       0.00413223 </v>
   <v>       0.00413223 </v>
   <v>       0.00413223 </v>
   <v>       0.00413223 </v>
   <v>       0.00413223 </v>
   <v>       0.00413223 </v>
   <v>       0.00413223 </v>
   <v>       0.00413223 </v>
   <v>       0.00413223 </v>
   <v>       0.00413223 </v>
   <v>       0.00413223 </v>
   <v>       0.00413223 </v>
   <v>       0.00413223 </v>
   <v>       0.00413223 </v>
   <v>       0.00413223 </v>
   <v>       0.00413223 </v>
   <v>       0.00413223 </v>
   <v>       0.00413223 </v>
   <v>       0.00413223 </v>
   <v>       0.00413223 </v>
   <v>       0.00413223 </v>
   <v>       0.00413223 </v>
   <v>       0.00413223 </v>
   <v>       0.00413223 </v>
   <v>       0.00413223 </v>
   <v>       0.00413223 </v>
   <v>       0.00413223 </v>
   <v>       0.00413223 </v>
   <v>       0.00413223 </v>
   <v>       0.00413223 </v>
   <v>       0.00413223 </v>
   <v>       0.00413223 </v>
   <v>       0.00413223 </v>
   <v>       0.00413223 </v>
   <v>       0.00413223 </v>
   <v>       0.00413223 </v>
   <v>       0.00413223 </v>
   <v>       0.00413223 </v>
   <v>       0.00413223 </v>
   <v>       0.00413223 </v>
   <v>       0.00413223 </v>
   <v>       0.00413223 </v>
   <v>       0.00413223 </v>
   <v>       0.00413223 </v>
   <v>       0.00413223 </v>
   <v>       0.00413223 </v>
   <v>       0.00413223 </v>
   <v>       0.00413223 </v>
   <v>       0.00413223 </v>
   <v>       0.00413223 </v>
   <v>       0.00413223 </v>
   <v>       0.00413223 </v>
   <v>       0.00413223 </v>
   <v>       0.00413223 </v>
   <v>       0.00413223 </v>
   <v>       0.00413223 </v>
   <v>       0.00413223 </v>
   <v>       0.00413223 </v>
   <v>       0.00413223 </v>
   <v>       0.00413223 </v>
   <v>       0.00413223 </v>
   <v>       0.00413223 </v>
   <v>       0.00413223 </v>
   <v>       0.00413223 </v>
   <v>       0.00413223 </v>
   <v>       0.00413223 </v>
   <v>       0.00413223 </v>
   <v>       0.00413223 </v>
   <v>       0.00413223 </v>
   <v>       0.00413223 </v>
   <v>       0.00413223 </v>
   <v>       0.00413223 </v>
   <v>       0.00413223 </v>
   <v>       0.00413223 </v>
   <v>       0.00413223 </v>
   <v>       0.00413223 </v>
   <v>       0.00413223 </v>
   <v>       0.00413223 </v>
   <v>       0.00413223 </v>
   <v>       0.00413223 </v>
   <v>       0.00413223 </v>
   <v>       0.00413223 </v>
   <v>       0.00413223 </v>
   <v>       0.00413223 </v>
   <v>       0.00413223 </v>
   <v>       0.00413223 </v>
   <v>       0.00413223 </v>
   <v>       0.00413223 </v>
   <v>       0.00206612 </v>
   <v>       0.00413223 </v>
   <v>       0.00413223 </v>
   <v>       0.00413223 </v>
   <v>       0.00413223 </v>
   <v>       0.00413223 </v>
   <v>       0.00413223 </v>
   <v>       0.00413223 </v>
   <v>       0.00413223 </v>
   <v>       0.00413223 </v>
   <v>       0.00413223 </v>
   <v>       0.00413223 </v>
   <v>       0.00413223 </v>
   <v>       0.00413223 </v>
   <v>       0.00413223 </v>
   <v>       0.00413223 </v>
   <v>       0.00413223 </v>
   <v>       0.00413223 </v>
   <v>       0.00413223 </v>
   <v>       0.00413223 </v>
   <v>       0.00413223 </v>
   <v>       0.00413223 </v>
   <v>       0.00413223 </v>
   <v>       0.00413223 </v>
   <v>       0.00413223 </v>
   <v>       0.00413223 </v>
   <v>       0.00413223 </v>
   <v>       0.00413223 </v>
   <v>       0.00413223 </v>
   <v>       0.00413223 </v>
   <v>       0.00413223 </v>
   <v>       0.00413223 </v>
   <v>       0.00413223 </v>
   <v>       0.00413223 </v>
   <v>       0.00413223 </v>
   <v>       0.00413223 </v>
   <v>       0.00413223 </v>
   <v>       0.00413223 </v>
   <v>       0.00413223 </v>
   <v>       0.00413223 </v>
   <v>       0.00413223 </v>
   <v>       0.00413223 </v>
   <v>       0.00413223 </v>
   <v>       0.00413223 </v>
   <v>       0.00413223 </v>
   <v>       0.00413223 </v>
   <v>       0.00413223 </v>
   <v>       0.00413223 </v>
   <v>       0.00413223 </v>
   <v>       0.00413223 </v>
   <v>       0.00413223 </v>
   <v>       0.00413223 </v>
   <v>       0.00413223 </v>
   <v>       0.00413223 </v>
   <v>       0.00413223 </v>
   <v>       0.00413223 </v>
   <v>       0.00413223 </v>
   <v>       0.00413223 </v>
   <v>       0.00413223 </v>
   <v>       0.00413223 </v>
   <v>       0.00413223 </v>
  </varray>
 </kpoints>
 <parameters>
  <separator name="general" >
   <i type="string" name="SYSTEM">unknown system</i>
   <i type="logical" name="LCOMPAT"> F  </i>
  </separator>
  <separator name="electronic" >
   <i type="string" name="PREC">accura</i>
   <i name="ENMAX">    520.00000000</i>
   <i name="ENAUG">    605.39200000</i>
   <i name="EDIFF">      0.00010000</i>
   <i type="int" name="IALGO">    68</i>
   <i type="int" name="IWAVPR">    11</i>
   <i type="int" name="NBANDS">    56</i>
   <i name="NELECT">     92.00000000</i>
   <i type="int" name="TURBO">     0</i>
   <i type="int" name="IRESTART">     0</i>
   <i type="int" name="NREBOOT">     0</i>
   <i type="int" name="NMIN">     0</i>
   <i name="EREF">      0.00000000</i>
   <separator name="electronic smearing" >
    <i type="int" name="ISMEAR">     0</i>
    <i name="SIGMA">      0.01000000</i>
    <i name="KSPACING">      0.50000000</i>
    <i type="logical" name="KGAMMA"> T  </i>
   </separator>
   <separator name="electronic projectors" >
    <i type="logical" name="LREAL"> T  </i>
    <v name="ROPT">     -0.00025000     -0.00025000</v>
    <i type="int" name="LMAXPAW">  -100</i>
    <i type="int" name="LMAXMIX">     4</i>
    <i type="logical" name="NLSPLINE"> F  </i>
   </separator>
   <separator name="electronic startup" >
    <i type="int" name="ISTART">     0</i>
    <i type="int" name="ICHARG">     2</i>
    <i type="int" name="INIWAV">     1</i>
   </separator>
   <separator name="electronic spin" >
    <i type="int" name="ISPIN">     2</i>
    <i type="logical" name="LNONCOLLINEAR"> F  </i>
    <v name="MAGMOM">    -10.00000000    -10.00000000     10.00000000     10.00000000      0.60000000      0.60000000      0.60000000      0.60000000</v>
    <i name="NUPDOWN">     -1.00000000</i>
    <i type="logical" name="LSORBIT"> F  </i>
    <v name="SAXIS">      0.00000000      0.00000000      1.00000000</v>
    <i type="logical" name="LSPIRAL"> F  </i>
    <v name="QSPIRAL">      0.00000000      0.00000000      0.00000000</v>
    <i type="logical" name="LZEROZ"> F  </i>
   </separator>
   <separator name="electronic exchange-correlation" >
    <i type="logical" name="LASPH"> T  </i>
    <i type="logical" name="LMETAGGA"> F  </i>
   </separator>
   <separator name="electronic convergence" >
    <i type="int" name="NELM">   100</i>
    <i type="int" name="NELMDL">    -5</i>
    <i type="int" name="NELMIN">     2</i>
    <i name="ENINI">    520.00000000</i>
    <separator name="electronic convergence detail" >
     <i type="logical" name="LDIAG"> T  </i>
     <i type="logical" name="LSUBROT"> F  </i>
     <i name="WEIMIN">      0.00100000</i>
     <i name="EBREAK">      0.00000045</i>
     <i name="DEPER">      0.30000000</i>
     <i type="int" name="NRMM">     4</i>
     <i name="TIME">      0.40000000</i>
    </separator>
   </separator>
   <separator name="electronic mixer" >
    <i name="AMIX">      0.40000000</i>
    <i name="BMIX">      1.00000000</i>
    <i name="AMIN">      0.10000000</i>
    <i name="AMIX_MAG">      1.60000000</i>
    <i name="BMIX_MAG">      1.00000000</i>
    <separator name="electronic mixer details" >
     <i type="int" name="IMIX">     4</i>
     <i type="logical" name="MIXFIRST"> F  </i>
     <i type="int" name="MAXMIX">   -45</i>
     <i name="WC">    100.00000000</i>
     <i type="int" name="INIMIX">     1</i>
     <i type="int" name="MIXPRE">     1</i>
     <i type="int" name="MREMOVE">     5</i>
    </separator>
   </separator>
   <separator name="electronic dipolcorrection" >
    <i type="logical" name="LDIPOL"> F  </i>
    <i type="logical" name="LMONO"> F  </i>
    <i type="int" name="IDIPOL">     0</i>
    <i name="EPSILON">      1.00000000</i>
    <v name="DIPOL">   -100.00000000   -100.00000000   -100.00000000</v>
    <i name="EFIELD">      0.00000000</i>
   </separator>
  </separator>
  <separator name="grids" >
   <i type="int" name="NGX">    28</i>
   <i type="int" name="NGY">    28</i>
   <i type="int" name="NGZ">    80</i>
   <i type="int" name="NGXF">    56</i>
   <i type="int" name="NGYF">    56</i>
   <i type="int" name="NGZF">   160</i>
   <i type="logical" name="ADDGRID"> F  </i>
  </separator>
  <separator name="ionic" >
   <i type="int" name="NSW">    99</i>
   <i type="int" name="IBRION">     2</i>
   <i type="int" name="MDALGO">     0</i>
   <i type="int" name="ISIF">     4</i>
   <i name="PSTRESS">      0.00000000</i>
   <i name="EDIFFG">     -0.01000000</i>
   <i type="int" name="NFREE">     1</i>
   <i name="POTIM">      0.30000000</i>
   <i name="SMASS">     -3.00000000</i>
   <i name="SCALEE">      1.00000000</i>
  </separator>
  <separator name="ionic md" >
   <i name="TEBEG">      0.00010000</i>
   <i name="TEEND">      0.00010000</i>
   <i type="int" name="NBLOCK">     1</i>
   <i type="int" name="KBLOCK">    99</i>
   <i type="int" name="NPACO">   256</i>
   <i name="APACO">     16.00000000</i>
  </separator>
  <separator name="symmetry" >
   <i type="int" name="ISYM">     2</i>
   <i name="SYMPREC">      0.00000001</i>
  </separator>
  <separator name="dos" >
   <i type="int" name="LORBIT">    11</i>
   <v name="RWIGS">     -1.00000000     -1.00000000</v>
   <i type="int" name="NEDOS">   301</i>
   <i name="EMIN">     10.00000000</i>
   <i name="EMAX">    -10.00000000</i>
   <i name="EFERMI">      0.00000000</i>
  </separator>
  <separator name="writing" >
   <i type="int" name="NWRITE">     2</i>
   <i type="logical" name="LWAVE"> F  </i>
   <i type="logical" name="LDOWNSAMPLE"> F  </i>
   <i type="logical" name="LCHARG"> F  </i>
   <i type="logical" name="LPARD"> F  </i>
   <i type="logical" name="LVTOT"> F  </i>
   <i type="logical" name="LVHAR"> F  </i>
   <i type="logical" name="LELF"> F  </i>
   <i type="logical" name="LOPTICS"> F  </i>
   <v name="STM">      0.00000000      0.00000000      0.00000000      0.00000000      0.00000000      0.00000000      0.00000000</v>
  </separator>
  <separator name="performance" >
   <i type="int" name="NPAR">     2</i>
   <i type="int" name="NSIM">     4</i>
   <i type="int" name="NBLK">    -1</i>
   <i type="logical" name="LPLANE"> T  </i>
   <i type="logical" name="LSCALAPACK"> T  </i>
   <i type="logical" name="LSCAAWARE"> F  </i>
   <i type="logical" name="LSCALU"> F  </i>
   <i type="logical" name="LASYNC"> F  </i>
   <i type="logical" name="LORBITALREAL"> F  </i>
  </separator>
  <separator name="miscellaneous" >
   <i type="int" name="IDIOT">     3</i>
   <i type="int" name="ISPECIAL">     0</i>
   <i type="logical" name="LMUSIC"> F  </i>
   <v name="POMASS">    151.96500000     16.00000000</v>
   <v name="DARWINR">      0.00000000      0.00000000</v>
   <v name="DARWINV">      1.00000000      1.00000000</v>
   <i type="logical" name="LCORR"> T  </i>
  </separator>
  <i type="logical" name="GGA_COMPAT"> T  </i>
  <i type="logical" name="LBERRY"> F  </i>
  <i type="int" name="ICORELEVEL">     0</i>
  <i type="logical" name="LDAU"> F  </i>
  <i type="int" name="I_CONSTRAINED_M">     0</i>
  <separator name="electronic exchange-correlation" >
   <i type="string" name="GGA">--</i>
   <i type="int" name="VOSKOWN">     0</i>
   <i type="logical" name="LHFCALC"> F  </i>
   <i type="string" name="PRECFOCK"></i>
   <i type="logical" name="LSYMGRAD"> F  </i>
   <i type="logical" name="LHFONE"> F  </i>
   <i type="logical" name="LRHFCALC"> F  </i>
   <i type="logical" name="LTHOMAS"> F  </i>
   <i type="logical" name="LMODELHF"> F  </i>
   <i name="ENCUT4O">     -1.00000000</i>
   <i type="int" name="EXXOEP">     0</i>
   <i type="int" name="FOURORBIT">     0</i>
   <i name="AEXX">      0.00000000</i>
   <i name="HFALPHA">      0.00000000</i>
   <i name="MCALPHA">      0.00000000</i>
   <i name="ALDAX">      1.00000000</i>
   <i name="AGGAX">      1.00000000</i>
   <i name="ALDAC">      1.00000000</i>
   <i name="AGGAC">      1.00000000</i>
   <i type="int" name="NKREDX">     1</i>
   <i type="int" name="NKREDY">     1</i>
   <i type="int" name="NKREDZ">     1</i>
   <i type="logical" name="SHIFTRED"> F  </i>
   <i type="logical" name="ODDONLY"> F  </i>
   <i type="logical" name="EVENONLY"> F  </i>
   <i type="int" name="LMAXFOCK">     0</i>
   <i type="int" name="NMAXFOCKAE">     0</i>
   <i type="logical" name="LFOCKAEDFT"> F  </i>
   <i name="HFSCREEN">      0.00000000</i>
   <i name="HFSCREENC">      0.00000000</i>
   <i type="int" name="NBANDSGWLOW">     0</i>
  </separator>
  <separator name="vdW DFT" >
   <i type="logical" name="LUSE_VDW"> F  </i>
   <i name="Zab_VDW">     -0.84910000</i>
   <i name="PARAM1">      0.12340000</i>
   <i name="PARAM2">      1.00000000</i>
   <i name="PARAM3">      0.00000000</i>
  </separator>
  <separator name="model GW" >
   <i type="int" name="MODEL_GW">     0</i>
   <i name="MODEL_EPS0">      9.83639940</i>
   <i name="MODEL_ALPHA">      1.00000000</i>
  </separator>
  <separator name="linear response parameters" >
   <i type="logical" name="LEPSILON"> F  </i>
   <i type="logical" name="LRPA"> F  </i>
   <i type="logical" name="LNABLA"> F  </i>
   <i type="logical" name="LVEL"> F  </i>
   <i type="int" name="KINTER">     0</i>
   <i name="CSHIFT">      0.10000000</i>
   <i name="OMEGAMAX">     -1.00000000</i>
   <i name="DEG_THRESHOLD">      0.00200000</i>
   <i name="RTIME">     -0.10000000</i>
   <i name="WPLASMAI">      0.00000000</i>
   <v name="DFIELD">      0.00000000      0.00000000      0.00000000</v>
   <v name="WPLASMA">      0.00000000      0.00000000      0.00000000      0.00000000      0.00000000      0.00000000      0.00000000      0.00000000      0.00000000</v>
  </separator>
  <separator name="orbital magnetization" >
   <i type="logical" name="NUCIND"> F  </i>
   <v name="MAGPOS">      0.00000000      0.00000000      0.00000000</v>
   <i type="logical" name="LNICSALL"> T  </i>
   <i type="logical" name="ORBITALMAG"> F  </i>
   <i type="logical" name="LMAGBLOCH"> F  </i>
   <i type="logical" name="LCHIMAG"> F  </i>
   <i type="logical" name="LGAUGE"> T  </i>
   <i type="int" name="MAGATOM">     0</i>
   <v name="MAGDIPOL">      0.00000000      0.00000000      0.00000000</v>
   <v name="AVECCONST">      0.00000000      0.00000000      0.00000000</v>
  </separator>
  <separator name="response functions" >
   <i type="logical" name="LADDER"> F  </i>
   <i type="logical" name="LRPAFORCE"> F  </i>
   <i type="logical" name="LFXC"> F  </i>
   <i type="logical" name="LHARTREE"> T  </i>
   <i type="int" name="IBSE">     0</i>
   <v type="int" name="KPOINT">    -1     0     0     0</v>
   <i type="logical" name="LTCTE"> F  </i>
   <i type="logical" name="LTETE"> F  </i>
   <i type="logical" name="LTRIPLET"> F  </i>
   <i type="logical" name="LFXCEPS"> F  </i>
   <i type="logical" name="LFXHEG"> F  </i>
   <i type="int" name="NATURALO">     2</i>
   <i type="logical" name="L2ORDER"> F  </i>
   <i type="logical" name="LMP2LT"> F  </i>
   <i type="logical" name="LUSEW"> F  </i>
   <i name="ENCUTGW">     -2.00000000</i>
   <i name="ENCUTGWSOFT">     -2.00000000</i>
   <i name="ENCUTLF">     -1.00000000</i>
   <i type="int" name="LMAXMP2">    -1</i>
   <i name="SCISSOR">      0.00000000</i>
   <i type="int" name="NOMEGA">     0</i>
   <i type="int" name="NOMEGAR">     0</i>
   <i type="int" name="NBANDSGW">    -1</i>
   <i type="int" name="NBANDSO">    -1</i>
   <i type="int" name="NBANDSV">    -1</i>
   <i type="int" name="NELM">   100</i>
   <i type="int" name="NELMHF">     1</i>
   <i type="int" name="DIM">     3</i>
   <i type="int" name="ANTIRES">     0</i>
   <i name="OMEGAMAX">    -30.00000000</i>
   <i name="OMEGAMIN">    -30.00000000</i>
   <i name="OMEGATL">   -200.00000000</i>
   <i type="int" name="OMEGAGRID">   140</i>
   <i name="CSHIFT">     -0.10000000</i>
   <i type="logical" name="SELFENERGY"> F  </i>
   <i type="logical" name="LSPECTRAL"> F  </i>
   <i type="logical" name="LSPECTRALGW"> F  </i>
   <i type="logical" name="LSINGLES"> F  </i>
   <i type="logical" name="LFERMIGW"> F  </i>
   <i type="logical" name="ODDONLYGW"> F  </i>
   <i type="logical" name="EVENONLYGW"> F  </i>
   <i type="int" name="NKREDLFX">     1</i>
   <i type="int" name="NKREDLFY">     1</i>
   <i type="int" name="NKREDLFZ">     1</i>
   <i type="int" name="MAXMEM">  2800</i>
   <i type="int" name="TELESCOPE">     0</i>
   <i type="int" name="TAUPAR">     1</i>
   <i type="int" name="OMEGAPAR">    -1</i>
   <i name="LAMBDA">      1.00000000</i>
  </separator>
  <separator name="External order field" >
   <i name="OFIELD_KAPPA">      0.00000000</i>
   <v name="OFIELD_K">      0.00000000      0.00000000      0.00000000</v>
   <i name="OFIELD_Q6_NEAR">      0.00000000</i>
   <i name="OFIELD_Q6_FAR">      0.00000000</i>
   <i name="OFIELD_A">      0.00000000</i>
  </separator>
 </parameters>
 <atominfo>
  <atoms>       8 </atoms>
  <types>       2 </types>
  <array name="atoms" >
   <dimension dim="1">ion</dimension>
   <field type="string">element</field>
   <field type="int">atomtype</field>
   <set>
    <rc><c>Eu</c><c>   1</c></rc>
    <rc><c>Eu</c><c>   1</c></rc>
    <rc><c>Eu</c><c>   1</c></rc>
    <rc><c>Eu</c><c>   1</c></rc>
    <rc><c>O </c><c>   2</c></rc>
    <rc><c>O </c><c>   2</c></rc>
    <rc><c>O </c><c>   2</c></rc>
    <rc><c>O </c><c>   2</c></rc>
   </set>
  </array>
  <array name="atomtypes" >
   <dimension dim="1">type</dimension>
   <field type="int">atomspertype</field>
   <field type="string">element</field>
   <field>mass</field>
   <field>valence</field>
   <field type="string">pseudopotential</field>
   <set>
    <rc><c>   4</c><c>Eu</c><c>    151.96500000</c><c>     17.00000000</c><c>  PAW_PBE Eu 23Dec2003                  </c></rc>
    <rc><c>   4</c><c>O </c><c>     16.00000000</c><c>      6.00000000</c><c>  PAW_PBE O 08Apr2002                   </c></rc>
   </set>
  </array>
 </atominfo>
 <structure name="initialpos" >
  <crystal>
   <varray name="basis" >
    <v>       0.00000800      -2.07416200       2.93333400 </v>
    <v>       3.59264600       0.00000000       0.00000000 </v>
    <v>       0.00026400       8.29679200       5.86666800 </v>
   </varray>
   <i name="volume">    131.15199204 </i>
   <varray name="rec_basis" >
    <v>       0.00000000      -0.16070561       0.22727399 </v>
    <v>       0.27834638      -0.00000555      -0.00000468 </v>
    <v>       0.00000000       0.08035281       0.05681751 </v>
   </varray>
  </crystal>
  <varray name="positions" >
   <v>       0.00000000       0.00000000       0.50000000 </v>
   <v>       0.50000000       0.50000000       0.75000000 </v>
   <v>       0.00000000       0.00000000       0.00000000 </v>
   <v>       0.50000000       0.50000000       0.25000000 </v>
   <v>       0.00000000       0.00000000       0.75000000 </v>
   <v>       0.50000000       0.50000000       0.00000000 </v>
   <v>       0.00000000       0.00000000       0.25000000 </v>
   <v>       0.50000000       0.50000000       0.50000000 </v>
  </varray>
 </structure>
 <calculation>
  <scstep>
   <time name="dav">   57.36   57.52</time>
   <time name="total">   59.02   59.18</time>
   <energy>
    <i name="alphaZ">    906.21123931 </i>
    <i name="ewald">  -9706.50108216 </i>
    <i name="hartreedc">  -2789.90814020 </i>
    <i name="XCdc">    467.13571769 </i>
    <i name="pawpsdc">  10232.67819445 </i>
    <i name="pawaedc"> -10815.10853932 </i>
    <i name="eentropy">     -0.00005351 </i>
    <i name="bandstr">    782.90948009 </i>
    <i name="atom">  12208.65988691 </i>
    <i name="e_fr_energy">   1286.07670325 </i>
    <i name="e_wo_entrp">   1286.07675677 </i>
    <i name="e_0_energy">   1286.07673001 </i>
   </energy>
  </scstep>
  <scstep>
   <time name="dav">   64.00   64.15</time>
   <time name="total">   64.02   64.17</time>
   <energy>
    <i name="e_fr_energy">    344.36783027 </i>
    <i name="e_wo_entrp">    344.36814416 </i>
    <i name="e_0_energy">    344.36798722 </i>
   </energy>
  </scstep>
  <scstep>
   <time name="dav">   72.48   72.65</time>
   <time name="total">   72.50   72.67</time>
   <energy>
    <i name="e_fr_energy">     -7.69451009 </i>
    <i name="e_wo_entrp">     -7.69419973 </i>
    <i name="e_0_energy">     -7.69435491 </i>
   </energy>
  </scstep>
  <scstep>
   <time name="dav">   85.95   86.16</time>
   <time name="total">   85.97   86.18</time>
   <energy>
    <i name="e_fr_energy">    -75.36099410 </i>
    <i name="e_wo_entrp">    -75.36019107 </i>
    <i name="e_0_energy">    -75.36059259 </i>
   </energy>
  </scstep>
  <scstep>
   <time name="dav">   87.40   87.61</time>
   <time name="total">   89.92   90.13</time>
   <energy>
    <i name="e_fr_energy">    -81.68612378 </i>
    <i name="e_wo_entrp">    -81.68456613 </i>
    <i name="e_0_energy">    -81.68534496 </i>
   </energy>
  </scstep>
  <scstep>
   <time name="diag">    6.71    6.72</time>
   <time name="diis">   51.23   51.35</time>
   <time name="orth">    0.76    0.76</time>
   <time name="total">   62.75   62.90</time>
   <energy>
    <i name="e_fr_energy">    -86.80468002 </i>
    <i name="e_wo_entrp">    -86.80447286 </i>
    <i name="e_0_energy">    -86.80457644 </i>
   </energy>
  </scstep>
  <scstep>
   <time name="diag">    6.76    6.77</time>
   <time name="diis">   42.48   42.58</time>
   <time name="orth">    0.76    0.76</time>
   <time name="total">   54.05   54.18</time>
   <energy>
    <i name="e_fr_energy">    -80.74071323 </i>
    <i name="e_wo_entrp">    -80.74070157 </i>
    <i name="e_0_energy">    -80.74070740 </i>
   </energy>
  </scstep>
  <scstep>
   <time name="diag">    6.69    6.70</time>
   <time name="diis">   46.13   46.24</time>
   <time name="orth">    0.77    0.77</time>
   <time name="total">   57.66   57.80</time>
   <energy>
    <i name="e_fr_energy">    -82.63223316 </i>
    <i name="e_wo_entrp">    -82.63219981 </i>
    <i name="e_0_energy">    -82.63221649 </i>
   </energy>
  </scstep>
  <scstep>
   <time name="diag">    6.69    6.71</time>
   <time name="diis">   47.40   47.51</time>
   <time name="orth">    0.75    0.75</time>
   <time name="total">   58.97   59.11</time>
   <energy>
    <i name="e_fr_energy">    -83.07982533 </i>
    <i name="e_wo_entrp">    -83.07931006 </i>
    <i name="e_0_energy">    -83.07956770 </i>
   </energy>
  </scstep>
  <scstep>
   <time name="diag">    6.68    6.70</time>
   <time name="diis">   52.61   52.73</time>
   <time name="orth">    0.76    0.76</time>
   <time name="total">   64.19   64.35</time>
   <energy>
    <i name="e_fr_energy">    -83.43105607 </i>
    <i name="e_wo_entrp">    -83.43028750 </i>
    <i name="e_0_energy">    -83.43067178 </i>
   </energy>
  </scstep>
  <scstep>
   <time name="diag">    6.67    6.68</time>
   <time name="diis">   56.40   56.53</time>
   <time name="orth">    0.77    0.77</time>
   <time name="total">   67.99   68.15</time>
   <energy>
    <i name="e_fr_energy">    -83.20258293 </i>
    <i name="e_wo_entrp">    -83.20242593 </i>
    <i name="e_0_energy">    -83.20250443 </i>
   </energy>
  </scstep>
  <scstep>
   <time name="diag">    6.70    6.72</time>
   <time name="diis">   60.90   61.05</time>
   <time name="orth">    0.76    0.76</time>
   <time name="total">   72.41   72.59</time>
   <energy>
    <i name="e_fr_energy">    -83.26875142 </i>
    <i name="e_wo_entrp">    -83.26843666 </i>
    <i name="e_0_energy">    -83.26859404 </i>
   </energy>
  </scstep>
  <scstep>
   <time name="diag">    6.68    6.70</time>
   <time name="diis">   61.89   62.04</time>
   <time name="orth">    0.76    0.77</time>
   <time name="total">   73.42   73.59</time>
   <energy>
    <i name="e_fr_energy">    -83.32622310 </i>
    <i name="e_wo_entrp">    -83.32596368 </i>
    <i name="e_0_energy">    -83.32609339 </i>
   </energy>
  </scstep>
  <scstep>
   <time name="diag">    6.67    6.68</time>
   <time name="diis">   59.34   59.48</time>
   <time name="orth">    0.75    0.75</time>
   <time name="total">   70.85   71.02</time>
   <energy>
    <i name="e_fr_energy">    -83.32498531 </i>
    <i name="e_wo_entrp">    -83.32477811 </i>
    <i name="e_0_energy">    -83.32488171 </i>
   </energy>
  </scstep>
  <scstep>
   <time name="diag">    6.69    6.71</time>
   <time name="diis">   62.87   63.02</time>
   <time name="orth">    0.76    0.76</time>
   <time name="total">   74.40   74.58</time>
   <energy>
    <i name="e_fr_energy">    -83.33210777 </i>
    <i name="e_wo_entrp">    -83.33186392 </i>
    <i name="e_0_energy">    -83.33198585 </i>
   </energy>
  </scstep>
  <scstep>
   <time name="diag">    6.69    6.70</time>
   <time name="diis">   62.74   62.89</time>
   <time name="orth">    0.75    0.75</time>
   <time name="total">   74.24   74.42</time>
   <energy>
    <i name="e_fr_energy">    -83.33483168 </i>
    <i name="e_wo_entrp">    -83.33460651 </i>
    <i name="e_0_energy">    -83.33471910 </i>
   </energy>
  </scstep>
  <scstep>
   <time name="diag">    6.69    6.70</time>
   <time name="diis">   55.27   55.40</time>
   <time name="orth">    0.77    0.77</time>
   <time name="total">   66.78   66.93</time>
   <energy>
    <i name="e_fr_energy">    -83.33741216 </i>
    <i name="e_wo_entrp">    -83.33720132 </i>
    <i name="e_0_energy">    -83.33730674 </i>
   </energy>
  </scstep>
  <scstep>
   <time name="diag">    6.72    6.73</time>
   <time name="diis">   46.38   46.49</time>
   <time name="orth">    0.75    0.75</time>
   <time name="total">   57.87   58.00</time>
   <energy>
    <i name="e_fr_energy">    -83.33903853 </i>
    <i name="e_wo_entrp">    -83.33881529 </i>
    <i name="e_0_energy">    -83.33892691 </i>
   </energy>
  </scstep>
  <scstep>
   <time name="diag">    6.69    6.70</time>
   <time name="diis">   42.37   42.47</time>
   <time name="orth">    0.75    0.75</time>
   <time name="total">   53.87   54.00</time>
   <energy>
    <i name="e_fr_energy">    -83.34038693 </i>
    <i name="e_wo_entrp">    -83.34017072 </i>
    <i name="e_0_energy">    -83.34027883 </i>
   </energy>
  </scstep>
  <scstep>
   <time name="diag">    6.69    6.70</time>
   <time name="diis">   39.43   39.52</time>
   <time name="orth">    0.74    0.75</time>
   <time name="total">   50.90   51.02</time>
   <energy>
    <i name="e_fr_energy">    -83.34136865 </i>
    <i name="e_wo_entrp">    -83.34114987 </i>
    <i name="e_0_energy">    -83.34125926 </i>
   </energy>
  </scstep>
  <scstep>
   <time name="diag">    6.68    6.69</time>
   <time name="diis">   37.84   37.93</time>
   <time name="orth">    0.74    0.75</time>
   <time name="total">   49.30   49.42</time>
   <energy>
    <i name="e_fr_energy">    -83.34218440 </i>
    <i name="e_wo_entrp">    -83.34196813 </i>
    <i name="e_0_energy">    -83.34207626 </i>
   </energy>
  </scstep>
  <scstep>
   <time name="diag">    6.69    6.71</time>
   <time name="diis">   35.53   35.61</time>
   <time name="orth">    0.75    0.76</time>
   <time name="total">   47.03   47.14</time>
   <energy>
    <i name="e_fr_energy">    -83.34281475 </i>
    <i name="e_wo_entrp">    -83.34259871 </i>
    <i name="e_0_energy">    -83.34270673 </i>
   </energy>
  </scstep>
  <scstep>
   <time name="diag">    6.66    6.68</time>
   <time name="diis">   35.36   35.44</time>
   <time name="orth">    0.75    0.75</time>
   <time name="total">   46.86   46.97</time>
   <energy>
    <i name="e_fr_energy">    -83.34331791 </i>
    <i name="e_wo_entrp">    -83.34310189 </i>
    <i name="e_0_energy">    -83.34320990 </i>
   </energy>
  </scstep>
  <scstep>
   <time name="diag">    6.68    6.69</time>
   <time name="diis">   34.12   34.20</time>
   <time name="orth">    0.76    0.76</time>
   <time name="total">   45.66   45.77</time>
   <energy>
    <i name="e_fr_energy">    -83.34372793 </i>
    <i name="e_wo_entrp">    -83.34351213 </i>
    <i name="e_0_energy">    -83.34362003 </i>
   </energy>
  </scstep>
  <scstep>
   <time name="diag">    6.66    6.68</time>
   <time name="diis">   34.10   34.18</time>
   <time name="orth">    0.75    0.75</time>
   <time name="total">   45.68   45.79</time>
   <energy>
    <i name="e_fr_energy">    -83.34405181 </i>
    <i name="e_wo_entrp">    -83.34383597 </i>
    <i name="e_0_energy">    -83.34394389 </i>
   </energy>
  </scstep>
  <scstep>
   <time name="diag">    6.72    6.74</time>
   <time name="diis">   33.15   33.23</time>
   <time name="orth">    0.75    0.76</time>
   <time name="total">   44.76   44.87</time>
   <energy>
    <i name="e_fr_energy">    -83.34430409 </i>
    <i name="e_wo_entrp">    -83.34408871 </i>
    <i name="e_0_energy">    -83.34419640 </i>
   </energy>
  </scstep>
  <scstep>
   <time name="diag">    6.73    6.75</time>
   <time name="diis">   33.08   33.15</time>
   <time name="orth">    0.75    0.75</time>
   <time name="total">   44.73   44.84</time>
   <energy>
    <i name="e_fr_energy">    -83.34451480 </i>
    <i name="e_wo_entrp">    -83.34429907 </i>
    <i name="e_0_energy">    -83.34440693 </i>
   </energy>
  </scstep>
  <scstep>
   <time name="diag">    6.72    6.73</time>
   <time name="diis">   32.23   32.31</time>
   <time name="orth">    0.75    0.76</time>
   <time name="total">   43.85   43.95</time>
   <energy>
    <i name="e_fr_energy">    -83.34468401 </i>
    <i name="e_wo_entrp">    -83.34446808 </i>
    <i name="e_0_energy">    -83.34457604 </i>
   </energy>
  </scstep>
  <scstep>
   <time name="diag">    6.72    6.73</time>
   <time name="diis">   31.80   31.88</time>
   <time name="orth">    0.75    0.75</time>
   <time name="total">   43.41   43.52</time>
   <energy>
    <i name="e_fr_energy">    -83.34482212 </i>
    <i name="e_wo_entrp">    -83.34460608 </i>
    <i name="e_0_energy">    -83.34471410 </i>
   </energy>
  </scstep>
  <scstep>
   <time name="diag">    6.70    6.71</time>
   <time name="diis">   31.62   31.70</time>
   <time name="orth">    0.76    0.76</time>
   <time name="total">   43.26   43.36</time>
   <energy>
    <i name="e_fr_energy">    -83.34493709 </i>
    <i name="e_wo_entrp">    -83.34472111 </i>
    <i name="e_0_energy">    -83.34482910 </i>
   </energy>
  </scstep>
  <scstep>
   <time name="diag">    6.72    6.74</time>
   <time name="diis">   31.53   31.61</time>
   <time name="orth">    0.76    0.76</time>
   <time name="total">   40.70   40.80</time>
   <energy>
    <i name="alphaZ">    906.21123931 </i>
    <i name="ewald">  -9706.50108216 </i>
    <i name="hartreedc">  -2755.53389118 </i>
    <i name="XCdc">    464.52429752 </i>
    <i name="pawpsdc">  10565.97565854 </i>
    <i name="pawaedc"> -11181.05250644 </i>
    <i name="eentropy">     -0.00021604 </i>
    <i name="bandstr">   -585.62841746 </i>
    <i name="atom">  12208.65988691 </i>
    <i name="e_fr_energy">    -83.34503099 </i>
    <i name="e_wo_entrp">    -83.34481495 </i>
    <i name="e_0_energy">    -83.34492297 </i>
   </energy>
  </scstep>
  <structure>
   <crystal>
    <varray name="basis" >
     <v>       0.00000800      -2.07416200       2.93333400 </v>
     <v>       3.59264600       0.00000000       0.00000000 </v>
     <v>       0.00026400       8.29679200       5.86666800 </v>
    </varray>
    <i name="volume">    131.15199204 </i>
    <varray name="rec_basis" >
     <v>       0.00000000      -0.16070561       0.22727399 </v>
     <v>       0.27834638      -0.00000555      -0.00000468 </v>
     <v>       0.00000000       0.08035281       0.05681751 </v>
    </varray>
   </crystal>
   <varray name="positions" >
    <v>       0.00000000       0.00000000       0.50000000 </v>
    <v>       0.50000000       0.50000000       0.75000000 </v>
    <v>       0.00000000       0.00000000       0.00000000 </v>
    <v>       0.50000000       0.50000000       0.25000000 </v>
    <v>       0.00000000       0.00000000       0.75000000 </v>
    <v>       0.50000000       0.50000000       0.00000000 </v>
    <v>       0.00000000       0.00000000       0.25000000 </v>
    <v>       0.50000000       0.50000000       0.50000000 </v>
   </varray>
  </structure>
  <varray name="forces" >
   <v>      -0.00008371       0.06536598       0.04624308 </v>
   <v>       0.00008371      -0.06536598      -0.04624308 </v>
   <v>       0.00001353       0.06450590       0.04566032 </v>
   <v>      -0.00001353      -0.06450590      -0.04566032 </v>
   <v>      -0.00003676       0.01493648       0.01048836 </v>
   <v>       0.00001189      -0.01519237      -0.01076709 </v>
   <v>      -0.00001189       0.01519237       0.01076709 </v>
   <v>       0.00003676      -0.01493648      -0.01048836 </v>
  </varray>
  <varray name="stress" >
   <v>      -5.53445577      -0.00078021      -0.02133832 </v>
   <v>      -0.00078005       0.11602557       3.95840061 </v>
   <v>      -0.02133855       3.95840065      -2.70413037 </v>
  </varray>
  <energy>
   <i name="e_fr_energy">    -83.34503099 </i>
   <i name="e_wo_entrp">    -83.34492297 </i>
   <i name="e_0_energy">     -0.00021604 </i>
  </energy>
  <time name="totalsc"> 1902.44 1907.00</time>
 </calculation>
 <calculation>
  <scstep>
   <time name="dav">   67.35   67.51</time>
   <time name="total">   71.49   71.66</time>
   <energy>
    <i name="alphaZ">    906.21123931 </i>
    <i name="ewald">  -9706.47660073 </i>
    <i name="hartreedc">  -2755.47677931 </i>
    <i name="XCdc">    464.52276883 </i>
    <i name="pawpsdc">  10564.75396005 </i>
    <i name="pawaedc"> -11179.91255838 </i>
    <i name="eentropy">     -0.00023770 </i>
    <i name="bandstr">   -585.62308659 </i>
    <i name="atom">  12208.65988691 </i>
    <i name="e_fr_energy">    -83.34140762 </i>
    <i name="e_wo_entrp">    -83.34116992 </i>
    <i name="e_0_energy">    -83.34128877 </i>
   </energy>
  </scstep>
  <scstep>
   <time name="diag">    6.72    6.74</time>
   <time name="diis">   54.45   54.57</time>
   <time name="orth">    0.75    0.75</time>
   <time name="total">   66.04   66.20</time>
   <energy>
    <i name="e_fr_energy">    -83.34753238 </i>
    <i name="e_wo_entrp">    -83.34726906 </i>
    <i name="e_0_energy">    -83.34740072 </i>
   </energy>
  </scstep>
  <scstep>
   <time name="diag">    6.73    6.74</time>
   <time name="diis">   58.61   58.75</time>
   <time name="orth">    0.75    0.75</time>
   <time name="total">   70.16   70.33</time>
   <energy>
    <i name="e_fr_energy">    -83.34776072 </i>
    <i name="e_wo_entrp">    -83.34754378 </i>
    <i name="e_0_energy">    -83.34765225 </i>
   </energy>
  </scstep>
  <scstep>
   <time name="diag">    6.70    6.72</time>
   <time name="diis">   45.38   45.49</time>
   <time name="orth">    0.75    0.76</time>
   <time name="total">   56.93   57.06</time>
   <energy>
    <i name="e_fr_energy">    -83.34710086 </i>
    <i name="e_wo_entrp">    -83.34690952 </i>
    <i name="e_0_energy">    -83.34700519 </i>
   </energy>
  </scstep>
  <scstep>
   <time name="diag">    6.72    6.73</time>
   <time name="diis">   42.12   42.22</time>
   <time name="orth">    0.75    0.75</time>
   <time name="total">   53.72   53.85</time>
   <energy>
    <i name="e_fr_energy">    -83.34744584 </i>
    <i name="e_wo_entrp">    -83.34715038 </i>
    <i name="e_0_energy">    -83.34729811 </i>
   </energy>
  </scstep>
  <scstep>
   <time name="diag">    6.73    6.75</time>
   <time name="diis">   38.28   38.37</time>
   <time name="orth">    0.75    0.76</time>
   <time name="total">   49.89   50.01</time>
   <energy>
    <i name="e_fr_energy">    -83.34699034 </i>
    <i name="e_wo_entrp">    -83.34679330 </i>
    <i name="e_0_energy">    -83.34689182 </i>
   </energy>
  </scstep>
  <scstep>
   <time name="diag">    6.71    6.72</time>
   <time name="diis">   28.00   28.07</time>
   <time name="orth">    0.76    0.76</time>
   <time name="total">   37.13   37.22</time>
   <energy>
    <i name="alphaZ">    906.21123931 </i>
    <i name="ewald">  -9706.47660073 </i>
    <i name="hartreedc">  -2755.56319960 </i>
    <i name="XCdc">    464.52525598 </i>
    <i name="pawpsdc">  10566.53888811 </i>
    <i name="pawaedc"> -11181.57285091 </i>
    <i name="eentropy">     -0.00019068 </i>
    <i name="bandstr">   -585.66945473 </i>
    <i name="atom">  12208.65988691 </i>
    <i name="e_fr_energy">    -83.34702634 </i>
    <i name="e_wo_entrp">    -83.34683566 </i>
    <i name="e_0_energy">    -83.34693100 </i>
   </energy>
  </scstep>
  <structure>
   <crystal>
    <varray name="basis" >
     <v>      -0.00001007      -2.07245897       2.93090722 </v>
     <v>       3.58964042      -0.00000083      -0.00002271 </v>
     <v>       0.00022478       8.31061428       5.87640512 </v>
    </varray>
    <i name="volume">    131.15199204 </i>
    <varray name="rec_basis" >
     <v>       0.00000140      -0.16083767       0.22746217 </v>
     <v>       0.27857944      -0.00000547      -0.00000291 </v>
     <v>       0.00000038       0.08021916       0.05672337 </v>
    </varray>
   </crystal>
   <varray name="positions" >
    <v>       0.00000015      -0.00000069       0.50022808 </v>
    <v>       0.49999985       0.50000069       0.74977192 </v>
    <v>       0.00000032       0.00000009       0.00022513 </v>
    <v>       0.49999968       0.49999991       0.24977487 </v>
    <v>      -0.00000048      -0.00000030       0.75005199 </v>
    <v>       0.49999984       0.50000010      -0.00005304 </v>
    <v>       0.00000016      -0.00000010       0.25005304 </v>
    <v>       0.50000048       0.50000030       0.49994801 </v>
   </varray>
  </structure>
  <varray name="forces" >
   <v>       0.00003130       0.05903367       0.04173172 </v>
   <v>      -0.00003130      -0.05903367      -0.04173172 </v>
   <v>      -0.00000143       0.05804309       0.04108817 </v>
   <v>       0.00000143      -0.05804309      -0.04108817 </v>
   <v>       0.00002144       0.00085563       0.00062160 </v>
   <v>      -0.00001540      -0.00127116      -0.00087436 </v>
   <v>       0.00001540       0.00127116       0.00087436 </v>
   <v>      -0.00002144      -0.00085563      -0.00062160 </v>
  </varray>
  <varray name="stress" >
   <v>      -9.20125069      -0.00682745      -0.01510297 </v>
   <v>      -0.00682746      -3.23390161       4.20208169 </v>
   <v>      -0.01510284       4.20208171      -6.20301257 </v>
  </varray>
  <energy>
   <i name="e_fr_energy">    -83.34702634 </i>
   <i name="e_wo_entrp">    -83.34693100 </i>
   <i name="e_0_energy">     -0.00019068 </i>
  </energy>
  <time name="totalsc">  481.03  482.18</time>
 </calculation>
 <calculation>
  <scstep>
   <time name="dav">   66.16   66.32</time>
   <time name="total">   70.27   70.44</time>
   <energy>
    <i name="alphaZ">    906.21123931 </i>
    <i name="ewald">  -9706.10772869 </i>
    <i name="hartreedc">  -2755.78792636 </i>
    <i name="XCdc">    464.52928516 </i>
    <i name="pawpsdc">  10566.71448033 </i>
    <i name="pawaedc"> -11181.73235260 </i>
    <i name="eentropy">     -0.00034613 </i>
    <i name="bandstr">   -585.78721836 </i>
    <i name="atom">  12208.65988691 </i>
    <i name="e_fr_energy">    -83.30068044 </i>
    <i name="e_wo_entrp">    -83.30033431 </i>
    <i name="e_0_energy">    -83.30050737 </i>
   </energy>
  </scstep>
  <scstep>
   <time name="diag">    6.72    6.73</time>
   <time name="diis">   52.89   53.01</time>
   <time name="orth">    0.75    0.76</time>
   <time name="total">   64.38   64.54</time>
   <energy>
    <i name="e_fr_energy">    -83.35117997 </i>
    <i name="e_wo_entrp">    -83.35087780 </i>
    <i name="e_0_energy">    -83.35102888 </i>
   </energy>
  </scstep>
  <scstep>
   <time name="diag">    6.73    6.75</time>
   <time name="diis">   59.46   59.60</time>
   <time name="orth">    0.75    0.76</time>
   <time name="total">   71.02   71.19</time>
   <energy>
    <i name="e_fr_energy">    -83.35418044 </i>
    <i name="e_wo_entrp">    -83.35384556 </i>
    <i name="e_0_energy">    -83.35401300 </i>
   </energy>
  </scstep>
  <scstep>
   <time name="diag">    6.71    6.73</time>
   <time name="diis">   52.64   52.76</time>
   <time name="orth">    0.75    0.75</time>
   <time name="total">   64.17   64.32</time>
   <energy>
    <i name="e_fr_energy">    -83.35888355 </i>
    <i name="e_wo_entrp">    -83.35860222 </i>
    <i name="e_0_energy">    -83.35874288 </i>
   </energy>
  </scstep>
  <scstep>
   <time name="diag">    6.72    6.73</time>
   <time name="diis">   52.96   53.09</time>
   <time name="orth">    0.75    0.76</time>
   <time name="total">   64.46   64.61</time>
   <energy>
    <i name="e_fr_energy">    -83.34769718 </i>
    <i name="e_wo_entrp">    -83.34750633 </i>
    <i name="e_0_energy">    -83.34760176 </i>
   </energy>
  </scstep>
  <scstep>
   <time name="diag">    6.71    6.72</time>
   <time name="diis">   56.73   56.86</time>
   <time name="orth">    0.76    0.76</time>
   <time name="total">   68.26   68.42</time>
   <energy>
    <i name="e_fr_energy">    -83.34725330 </i>
    <i name="e_wo_entrp">    -83.34705220 </i>
    <i name="e_0_energy">    -83.34715275 </i>
   </energy>
  </scstep>
  <scstep>
   <time name="diag">    6.69    6.71</time>
   <time name="diis">   48.91   49.03</time>
   <time name="orth">    0.76    0.76</time>
   <time name="total">   60.36   60.50</time>
   <energy>
    <i name="e_fr_energy">    -83.34736531 </i>
    <i name="e_wo_entrp">    -83.34718311 </i>
    <i name="e_0_energy">    -83.34727421 </i>
   </energy>
  </scstep>
  <scstep>
   <time name="diag">    6.63    6.65</time>
   <time name="diis">   37.46   37.55</time>
   <time name="orth">    0.73    0.73</time>
   <time name="total">   46.48   46.59</time>
   <energy>
    <i name="alphaZ">    906.21123931 </i>
    <i name="ewald">  -9706.10772869 </i>
    <i name="hartreedc">  -2755.92555492 </i>
    <i name="XCdc">    464.53144534 </i>
    <i name="pawpsdc">  10568.80818775 </i>
    <i name="pawaedc"> -11183.68628354 </i>
    <i name="eentropy">     -0.00018132 </i>
    <i name="bandstr">   -585.83831331 </i>
    <i name="atom">  12208.65988691 </i>
    <i name="e_fr_energy">    -83.34730247 </i>
    <i name="e_wo_entrp">    -83.34712115 </i>
    <i name="e_0_energy">    -83.34721181 </i>
   </energy>
  </scstep>
  <structure>
   <crystal>
    <varray name="basis" >
     <v>      -0.00006427      -2.06736696       2.92365105 </v>
     <v>       3.58065328      -0.00000332      -0.00009082 </v>
     <v>       0.00010714       8.35215034       5.90566546 </v>
    </varray>
    <i name="volume">    131.15199204 </i>
    <varray name="rec_basis" >
     <v>       0.00000563      -0.16123385       0.22802669 </v>
     <v>       0.27927865      -0.00000528       0.00000240 </v>
     <v>       0.00000151       0.07982022       0.05644233 </v>
    </varray>
   </crystal>
   <varray name="positions" >
    <v>       0.00000060      -0.00000276       0.50091120 </v>
    <v>       0.49999940       0.50000276       0.74908880 </v>
    <v>       0.00000127       0.00000038       0.00089938 </v>
    <v>       0.49999873       0.49999962       0.24910062 </v>
    <v>      -0.00000193      -0.00000120       0.75020770 </v>
    <v>       0.49999935       0.50000040      -0.00021191 </v>
    <v>       0.00000065      -0.00000040       0.25021191 </v>
    <v>       0.50000193       0.50000120       0.49979230 </v>
   </varray>
  </structure>
  <varray name="forces" >
   <v>       0.00013199      -0.06216494      -0.04403290 </v>
   <v>      -0.00013199       0.06216494       0.04403290 </v>
   <v>      -0.00000667      -0.06094220      -0.04313217 </v>
   <v>       0.00000667       0.06094220       0.04313217 </v>
   <v>      -0.00016207       0.01636419       0.01123002 </v>
   <v>       0.00031584      -0.01687196      -0.01159858 </v>
   <v>      -0.00031584       0.01687196       0.01159858 </v>
   <v>       0.00016207      -0.01636419      -0.01123002 </v>
  </varray>
  <varray name="stress" >
   <v>       0.93736178      -0.00269815       0.00253139 </v>
   <v>      -0.00269841      -1.00905575      -1.35581850 </v>
   <v>       0.00253170      -1.35581854      -0.02962828 </v>
  </varray>
  <energy>
   <i name="e_fr_energy">    -83.34730247 </i>
   <i name="e_wo_entrp">    -83.34721181 </i>
   <i name="e_0_energy">     -0.00018132 </i>
  </energy>
  <time name="totalsc">  584.86  586.27</time>
 </calculation>
 <calculation>
  <scstep>
   <time name="dav">   65.17   65.32</time>
   <time name="total">   69.19   69.35</time>
   <energy>
    <i name="alphaZ">    906.21123931 </i>
    <i name="ewald">  -9706.29040431 </i>
    <i name="hartreedc">  -2755.87869547 </i>
    <i name="XCdc">    464.53790183 </i>
    <i name="pawpsdc">  10569.05608711 </i>
    <i name="pawaedc"> -11183.97244966 </i>
    <i name="eentropy">     -0.00026428 </i>
    <i name="bandstr">   -585.66679520 </i>
    <i name="atom">  12208.65988691 </i>
    <i name="e_fr_energy">    -83.34349376 </i>
    <i name="e_wo_entrp">    -83.34322948 </i>
    <i name="e_0_energy">    -83.34336162 </i>
   </energy>
  </scstep>
  <scstep>
   <time name="diag">    6.72    6.73</time>
   <time name="diis">   51.92   52.04</time>
   <time name="orth">    0.75    0.75</time>
   <time name="total">   63.47   63.62</time>
   <energy>
    <i name="e_fr_energy">    -83.34870395 </i>
    <i name="e_wo_entrp">    -83.34845283 </i>
    <i name="e_0_energy">    -83.34857839 </i>
   </energy>
  </scstep>
  <scstep>
   <time name="diag">    6.75    6.77</time>
   <time name="diis">   54.50   54.63</time>
   <time name="orth">    0.75    0.75</time>
   <time name="total">   66.07   66.23</time>
   <energy>
    <i name="e_fr_energy">    -83.34906776 </i>
    <i name="e_wo_entrp">    -83.34880315 </i>
    <i name="e_0_energy">    -83.34893545 </i>
   </energy>
  </scstep>
  <scstep>
   <time name="diag">    6.70    6.72</time>
   <time name="diis">   40.38   40.48</time>
   <time name="orth">    0.75    0.75</time>
   <time name="total">   51.86   51.99</time>
   <energy>
    <i name="e_fr_energy">    -83.34908638 </i>
    <i name="e_wo_entrp">    -83.34878271 </i>
    <i name="e_0_energy">    -83.34893454 </i>
   </energy>
  </scstep>
  <scstep>
   <time name="diag">    6.71    6.73</time>
   <time name="diis">   34.77   34.85</time>
   <time name="orth">    0.76    0.76</time>
   <time name="total">   46.28   46.39</time>
   <energy>
    <i name="e_fr_energy">    -83.34804645 </i>
    <i name="e_wo_entrp">    -83.34787630 </i>
    <i name="e_0_energy">    -83.34796138 </i>
   </energy>
  </scstep>
  <scstep>
   <time name="diag">    6.70    6.72</time>
   <time name="diis">   35.29   35.37</time>
   <time name="orth">    0.76    0.76</time>
   <time name="total">   44.40   44.50</time>
   <energy>
    <i name="alphaZ">    906.21123931 </i>
    <i name="ewald">  -9706.29040431 </i>
    <i name="hartreedc">  -2755.87612698 </i>
    <i name="XCdc">    464.54061718 </i>
    <i name="pawpsdc">  10568.77823034 </i>
    <i name="pawaedc"> -11183.70017098 </i>
    <i name="eentropy">     -0.00016808 </i>
    <i name="bandstr">   -585.67110860 </i>
    <i name="atom">  12208.65988691 </i>
    <i name="e_fr_energy">    -83.34800521 </i>
    <i name="e_wo_entrp">    -83.34783713 </i>
    <i name="e_0_energy">    -83.34792117 </i>
   </energy>
  </scstep>
  <structure>
   <crystal>
    <varray name="basis" >
     <v>      -0.00004489      -2.06918437       2.92624092 </v>
     <v>       3.58386102      -0.00000243      -0.00006647 </v>
     <v>       0.00014920       8.33728959       5.89519668 </v>
    </varray>
    <i name="volume">    131.15199204 </i>
    <varray name="rec_basis" >
     <v>       0.00000412      -0.16109222       0.22782488 </v>
     <v>       0.27902868      -0.00000535       0.00000050 </v>
     <v>       0.00000110       0.07996250       0.05654256 </v>
    </varray>
   </crystal>
   <varray name="positions" >
    <v>       0.00000044      -0.00000203       0.50066821 </v>
    <v>       0.49999956       0.50000203       0.74933179 </v>
    <v>       0.00000092       0.00000027       0.00065954 </v>
    <v>       0.49999908       0.49999973       0.24934046 </v>
    <v>      -0.00000141      -0.00000088       0.75015231 </v>
    <v>       0.49999953       0.50000029      -0.00015540 </v>
    <v>       0.00000047      -0.00000029       0.25015540 </v>
    <v>       0.50000141       0.50000088       0.49984769 </v>
   </varray>
  </structure>
  <varray name="forces" >
   <v>       0.00006953      -0.02983326      -0.02112789 </v>
   <v>      -0.00006953       0.02983326       0.02112789 </v>
   <v>      -0.00003804      -0.03182322      -0.02256421 </v>
   <v>       0.00003804       0.03182322       0.02256421 </v>
   <v>       0.00001022       0.02962822       0.02095007 </v>
   <v>       0.00000626      -0.02835868      -0.02003443 </v>
   <v>      -0.00000626       0.02835868       0.02003443 </v>
   <v>      -0.00001022      -0.02962822      -0.02095007 </v>
  </varray>
  <varray name="stress" >
   <v>      -6.31792076      -0.01725715       0.03210125 </v>
   <v>      -0.01725663     -13.26911151      -4.87919135 </v>
   <v>       0.03210098      -4.87919124      -9.79575452 </v>
  </varray>
  <energy>
   <i name="e_fr_energy">    -83.34800521 </i>
   <i name="e_wo_entrp">    -83.34792117 </i>
   <i name="e_0_energy">     -0.00016808 </i>
  </energy>
  <time name="totalsc">  416.50  417.50</time>
 </calculation>
 <calculation>
  <scstep>
   <time name="dav">   68.76   68.92</time>
   <time name="total">   72.81   72.99</time>
   <energy>
    <i name="alphaZ">    906.21123931 </i>
    <i name="ewald">  -9706.40622111 </i>
    <i name="hartreedc">  -2755.74856318 </i>
    <i name="XCdc">    464.53269648 </i>
    <i name="pawpsdc">  10568.70211338 </i>
    <i name="pawaedc"> -11183.60145042 </i>
    <i name="eentropy">     -0.00025629 </i>
    <i name="bandstr">   -585.69337653 </i>
    <i name="atom">  12208.65988691 </i>
    <i name="e_fr_energy">    -83.34393146 </i>
    <i name="e_wo_entrp">    -83.34367517 </i>
    <i name="e_0_energy">    -83.34380332 </i>
   </energy>
  </scstep>
  <scstep>
   <time name="diag">    6.65    6.66</time>
   <time name="diis">   52.14   52.27</time>
   <time name="orth">    0.76    0.76</time>
   <time name="total">   63.59   63.74</time>
   <energy>
    <i name="e_fr_energy">    -83.34842545 </i>
    <i name="e_wo_entrp">    -83.34821672 </i>
    <i name="e_0_energy">    -83.34832108 </i>
   </energy>
  </scstep>
  <scstep>
   <time name="diag">    6.65    6.67</time>
   <time name="diis">   54.48   54.60</time>
   <time name="orth">    0.75    0.75</time>
   <time name="total">   65.93   66.08</time>
   <energy>
    <i name="e_fr_energy">    -83.34885318 </i>
    <i name="e_wo_entrp">    -83.34856507 </i>
    <i name="e_0_energy">    -83.34870912 </i>
   </energy>
  </scstep>
  <scstep>
   <time name="diag">    6.71    6.72</time>
   <time name="diis">   41.48   41.58</time>
   <time name="orth">    0.75    0.76</time>
   <time name="total">   52.97   53.10</time>
   <energy>
    <i name="e_fr_energy">    -83.34856239 </i>
    <i name="e_wo_entrp">    -83.34831885 </i>
    <i name="e_0_energy">    -83.34844062 </i>
   </energy>
  </scstep>
  <scstep>
   <time name="diag">    6.69    6.70</time>
   <time name="diis">   34.51   34.59</time>
   <time name="orth">    0.75    0.76</time>
   <time name="total">   46.02   46.13</time>
   <energy>
    <i name="e_fr_energy">    -83.34789236 </i>
    <i name="e_wo_entrp">    -83.34771288 </i>
    <i name="e_0_energy">    -83.34780262 </i>
   </energy>
  </scstep>
  <scstep>
   <time name="diag">    6.67    6.68</time>
   <time name="diis">   37.59   37.68</time>
   <time name="orth">    0.76    0.76</time>
   <time name="total">   49.08   49.20</time>
   <energy>
    <i name="e_fr_energy">    -83.34788678 </i>
    <i name="e_wo_entrp">    -83.34770827 </i>
    <i name="e_0_energy">    -83.34779753 </i>
   </energy>
  </scstep>
  <scstep>
   <time name="diag">    6.67    6.68</time>
   <time name="diis">   26.69   26.75</time>
   <time name="orth">    0.76    0.76</time>
   <time name="total">   35.75   35.84</time>
   <energy>
    <i name="alphaZ">    906.21123931 </i>
    <i name="ewald">  -9706.40622111 </i>
    <i name="hartreedc">  -2755.73305756 </i>
    <i name="XCdc">    464.53088090 </i>
    <i name="pawpsdc">  10568.48537269 </i>
    <i name="pawaedc"> -11183.39027098 </i>
    <i name="eentropy">     -0.00018161 </i>
    <i name="bandstr">   -585.70555246 </i>
    <i name="atom">  12208.65988691 </i>
    <i name="e_fr_energy">    -83.34790391 </i>
    <i name="e_wo_entrp">    -83.34772230 </i>
    <i name="e_0_energy">    -83.34781310 </i>
   </energy>
  </scstep>
  <structure>
   <crystal>
    <varray name="basis" >
     <v>      -0.00002748      -2.07082035       2.92857220 </v>
     <v>       3.58674843      -0.00000163      -0.00004459 </v>
     <v>       0.00018699       8.32394657       5.88579711 </v>
    </varray>
    <i name="volume">    131.15199204 </i>
    <varray name="rec_basis" >
     <v>       0.00000276      -0.16096495       0.22764353 </v>
     <v>       0.27880405      -0.00000541      -0.00000121 </v>
     <v>       0.00000074       0.08009068       0.05663285 </v>
    </varray>
   </crystal>
   <varray name="positions" >
    <v>       0.00000029      -0.00000137       0.50044945 </v>
    <v>       0.49999971       0.50000137       0.74955055 </v>
    <v>       0.00000061       0.00000017       0.00044362 </v>
    <v>       0.49999939       0.49999983       0.24955638 </v>
    <v>      -0.00000095      -0.00000059       0.75010245 </v>
    <v>       0.49999969       0.50000020      -0.00010452 </v>
    <v>       0.00000031      -0.00000020       0.25010452 </v>
    <v>       0.50000095       0.50000059       0.49989755 </v>
   </varray>
  </structure>
  <varray name="forces" >
   <v>       0.00007010       0.00964898       0.00676207 </v>
   <v>      -0.00007010      -0.00964898      -0.00676207 </v>
   <v>       0.00005227       0.00972953       0.00684327 </v>
   <v>      -0.00005227      -0.00972953      -0.00684327 </v>
   <v>       0.00000410       0.02360304       0.01669281 </v>
   <v>       0.00001263      -0.02241915      -0.01584459 </v>
   <v>      -0.00001263       0.02241915       0.01584459 </v>
   <v>      -0.00000410      -0.02360304      -0.01669281 </v>
  </varray>
  <varray name="stress" >
   <v>      -3.96309593      -0.01569140       0.01810617 </v>
   <v>      -0.01569157      -5.77196043      -1.26378016 </v>
   <v>       0.01810665      -1.26378008      -4.86174677 </v>
  </varray>
  <energy>
   <i name="e_fr_energy">    -83.34790391 </i>
   <i name="e_wo_entrp">    -83.34781310 </i>
   <i name="e_0_energy">     -0.00018161 </i>
  </energy>
  <time name="totalsc">  461.23  462.34</time>
 </calculation>
 <calculation>
  <scstep>
   <time name="dav">   73.09   73.26</time>
   <time name="total">   77.15   77.34</time>
   <energy>
    <i name="alphaZ">    906.21123931 </i>
    <i name="ewald">  -9706.41660313 </i>
    <i name="hartreedc">  -2755.73098108 </i>
    <i name="XCdc">    464.53278065 </i>
    <i name="pawpsdc">  10568.49604739 </i>
    <i name="pawaedc"> -11183.40334609 </i>
    <i name="eentropy">     -0.00016796 </i>
    <i name="bandstr">   -585.69667844 </i>
    <i name="atom">  12208.65988691 </i>
    <i name="e_fr_energy">    -83.34782245 </i>
    <i name="e_wo_entrp">    -83.34765448 </i>
    <i name="e_0_energy">    -83.34773846 </i>
   </energy>
  </scstep>
  <scstep>
   <time name="diag">    6.73    6.74</time>
   <time name="diis">   31.56   31.64</time>
   <time name="orth">    0.75    0.75</time>
   <time name="total">   40.69   40.79</time>
   <energy>
    <i name="alphaZ">    906.21123931 </i>
    <i name="ewald">  -9706.41660313 </i>
    <i name="hartreedc">  -2755.72238864 </i>
    <i name="XCdc">    464.53125764 </i>
    <i name="pawpsdc">  10568.48997199 </i>
    <i name="pawaedc"> -11183.39583281 </i>
    <i name="eentropy">     -0.00017301 </i>
    <i name="bandstr">   -585.70523580 </i>
    <i name="atom">  12208.65988691 </i>
    <i name="e_fr_energy">    -83.34787755 </i>
    <i name="e_wo_entrp">    -83.34770453 </i>
    <i name="e_0_energy">    -83.34779104 </i>
   </energy>
  </scstep>
  <structure>
   <crystal>
    <varray name="basis" >
     <v>      -0.00002548      -2.07100844       2.92884024 </v>
     <v>       3.58708040      -0.00000154      -0.00004207 </v>
     <v>       0.00019133       8.32241453       5.88471786 </v>
    </varray>
    <i name="volume">    131.15199204 </i>
    <varray name="rec_basis" >
     <v>       0.00000260      -0.16095033       0.22762270 </v>
     <v>       0.27877825      -0.00000542      -0.00000140 </v>
     <v>       0.00000070       0.08010542       0.05664324 </v>
    </varray>
   </crystal>
   <varray name="positions" >
    <v>       0.00000027      -0.00000129       0.50042428 </v>
    <v>       0.49999973       0.50000129       0.74957572 </v>
    <v>       0.00000058       0.00000016       0.00041878 </v>
    <v>       0.49999942       0.49999984       0.24958122 </v>
    <v>      -0.00000089      -0.00000056       0.75009671 </v>
    <v>       0.49999970       0.50000019      -0.00009867 </v>
    <v>       0.00000030      -0.00000019       0.25009867 </v>
    <v>       0.50000089       0.50000056       0.49990329 </v>
   </varray>
  </structure>
  <varray name="forces" >
   <v>      -0.00004849       0.09299301       0.06568571 </v>
   <v>       0.00004849      -0.09299301      -0.06568571 </v>
   <v>       0.00004818       0.09416697       0.06663793 </v>
   <v>      -0.00004818      -0.09416697      -0.06663793 </v>
   <v>      -0.00000120       0.00603504       0.00427064 </v>
   <v>       0.00000617      -0.00789929      -0.00559659 </v>
   <v>      -0.00000617       0.00789929       0.00559659 </v>
   <v>       0.00000120      -0.00603504      -0.00427064 </v>
  </varray>
  <varray name="stress" >
   <v>      -5.78304179      -0.01052318       0.00233053 </v>
   <v>      -0.01052286      -6.54865257      -0.53547873 </v>
   <v>       0.00233064      -0.53547898      -6.16187809 </v>
  </varray>
  <energy>
   <i name="e_fr_energy">    -83.34787755 </i>
   <i name="e_wo_entrp">    -83.34779104 </i>
[...]
   <v>       0.00799620       0.36485848      -5.40643959 </v>
  </varray>
  <energy>
   <i name="e_fr_energy">    -83.34796195 </i>
   <i name="e_wo_entrp">    -83.34787371 </i>
   <i name="e_0_energy">     -0.00017647 </i>
  </energy>
  <time name="totalsc">  142.56  142.91</time>
 </calculation>
 <calculation>
  <scstep>
   <time name="dav">   36.45   36.54</time>
   <time name="total">   40.55   40.65</time>
   <energy>
    <i name="alphaZ">    906.21123931 </i>
    <i name="ewald">  -9706.40622118 </i>
    <i name="hartreedc">  -2755.73852020 </i>
    <i name="XCdc">    464.53169041 </i>
    <i name="pawpsdc">  10568.56479878 </i>
    <i name="pawaedc"> -11183.46477252 </i>
    <i name="eentropy">     -0.00017648 </i>
    <i name="bandstr">   -585.70588724 </i>
    <i name="atom">  12208.65988691 </i>
    <i name="e_fr_energy">    -83.34796220 </i>
    <i name="e_wo_entrp">    -83.34778572 </i>
    <i name="e_0_energy">    -83.34787396 </i>
   </energy>
  </scstep>
  <scstep>
   <time name="diag">    6.74    6.76</time>
   <time name="diis">   17.01   17.05</time>
   <time name="orth">    0.74    0.74</time>
   <time name="total">   26.16   26.22</time>
   <energy>
    <i name="alphaZ">    906.21123931 </i>
    <i name="ewald">  -9706.40622118 </i>
    <i name="hartreedc">  -2755.73864604 </i>
    <i name="XCdc">    464.53170772 </i>
    <i name="pawpsdc">  10568.56723304 </i>
    <i name="pawaedc"> -11183.46701379 </i>
    <i name="eentropy">     -0.00017643 </i>
    <i name="bandstr">   -585.70597185 </i>
    <i name="atom">  12208.65988691 </i>
    <i name="e_fr_energy">    -83.34796231 </i>
    <i name="e_wo_entrp">    -83.34778588 </i>
    <i name="e_0_energy">    -83.34787410 </i>
   </energy>
  </scstep>
  <structure>
   <crystal>
    <varray name="basis" >
     <v>      -0.00002748      -2.07082036       2.92857222 </v>
     <v>       3.58674845      -0.00000163      -0.00004459 </v>
     <v>       0.00018699       8.32394646       5.88579703 </v>
    </varray>
    <i name="volume">    131.15199204 </i>
    <varray name="rec_basis" >
     <v>       0.00000276      -0.16096495       0.22764353 </v>
     <v>       0.27880405      -0.00000541      -0.00000121 </v>
     <v>       0.00000074       0.08009068       0.05663285 </v>
    </varray>
   </crystal>
   <varray name="positions" >
    <v>       0.00000029      -0.00000137       0.50044945 </v>
    <v>       0.49999971       0.50000137       0.74955055 </v>
    <v>       0.00000061       0.00000017       0.00044362 </v>
    <v>       0.49999939       0.49999983       0.24955638 </v>
    <v>      -0.00000095      -0.00000059       0.75010245 </v>
    <v>       0.49999969       0.50000020      -0.00010452 </v>
    <v>       0.00000031      -0.00000020       0.25010452 </v>
    <v>       0.50000095       0.50000059       0.49989755 </v>
   </varray>
  </structure>
  <varray name="forces" >
   <v>       0.00002976       0.02631056       0.01858332 </v>
   <v>      -0.00002976      -0.02631056      -0.01858332 </v>
   <v>       0.00000036       0.02691410       0.01900735 </v>
   <v>      -0.00000036      -0.02691410      -0.01900735 </v>
   <v>       0.00001544       0.01051112       0.00745303 </v>
   <v>       0.00000187      -0.01052749      -0.00743669 </v>
   <v>      -0.00000187       0.01052749       0.00743669 </v>
   <v>      -0.00001544      -0.01051112      -0.00745303 </v>
  </varray>
  <varray name="stress" >
   <v>      -5.66915764      -0.01307693       0.00791226 </v>
   <v>      -0.01307659      -5.13680018       0.38632375 </v>
   <v>       0.00791194       0.38632428      -5.39496360 </v>
  </varray>
  <energy>
   <i name="e_fr_energy">    -83.34796231 </i>
   <i name="e_wo_entrp">    -83.34787410 </i>
   <i name="e_0_energy">     -0.00017643 </i>
  </energy>
  <time name="totalsc">  143.02  143.37</time>
 </calculation>
 <calculation>
  <scstep>
   <time name="dav">   37.21   37.29</time>
   <time name="total">   41.25   41.35</time>
   <energy>
    <i name="alphaZ">    906.21123931 </i>
    <i name="ewald">  -9706.40622065 </i>
    <i name="hartreedc">  -2755.73869018 </i>
    <i name="XCdc">    464.53170756 </i>
    <i name="pawpsdc">  10568.56774410 </i>
    <i name="pawaedc"> -11183.46749865 </i>
    <i name="eentropy">     -0.00017643 </i>
    <i name="bandstr">   -585.70595451 </i>
    <i name="atom">  12208.65988691 </i>
    <i name="e_fr_energy">    -83.34796254 </i>
    <i name="e_wo_entrp">    -83.34778611 </i>
    <i name="e_0_energy">    -83.34787433 </i>
   </energy>
  </scstep>
  <scstep>
   <time name="diag">    6.65    6.66</time>
   <time name="diis">   17.60   17.64</time>
   <time name="orth">    0.75    0.75</time>
   <time name="total">   26.44   26.50</time>
   <energy>
    <i name="alphaZ">    906.21123931 </i>
    <i name="ewald">  -9706.40622065 </i>
    <i name="hartreedc">  -2755.73891615 </i>
    <i name="XCdc">    464.53171052 </i>
    <i name="pawpsdc">  10568.57083111 </i>
    <i name="pawaedc"> -11183.47041789 </i>
    <i name="eentropy">     -0.00017642 </i>
    <i name="bandstr">   -585.70589940 </i>
    <i name="atom">  12208.65988691 </i>
    <i name="e_fr_energy">    -83.34796265 </i>
    <i name="e_wo_entrp">    -83.34778624 </i>
    <i name="e_0_energy">    -83.34787445 </i>
   </energy>
  </scstep>
  <structure>
   <crystal>
    <varray name="basis" >
     <v>      -0.00002748      -2.07082035       2.92857221 </v>
     <v>       3.58674844      -0.00000163      -0.00004459 </v>
     <v>       0.00018699       8.32394654       5.88579708 </v>
    </varray>
    <i name="volume">    131.15199204 </i>
    <varray name="rec_basis" >
     <v>       0.00000276      -0.16096495       0.22764353 </v>
     <v>       0.27880405      -0.00000541      -0.00000121 </v>
     <v>       0.00000074       0.08009068       0.05663285 </v>
    </varray>
   </crystal>
   <varray name="positions" >
    <v>       0.00000029      -0.00000137       0.50044946 </v>
    <v>       0.49999971       0.50000137       0.74955054 </v>
    <v>       0.00000061       0.00000017       0.00044363 </v>
    <v>       0.49999939       0.49999983       0.24955637 </v>
    <v>      -0.00000095      -0.00000059       0.75010245 </v>
    <v>       0.49999969       0.50000020      -0.00010452 </v>
    <v>       0.00000031      -0.00000020       0.25010452 </v>
    <v>       0.50000095       0.50000059       0.49989755 </v>
   </varray>
  </structure>
  <varray name="forces" >
   <v>       0.00002981       0.02679629       0.01892664 </v>
   <v>      -0.00002981      -0.02679629      -0.01892664 </v>
   <v>       0.00000453       0.02731974       0.01929102 </v>
   <v>      -0.00000453      -0.02731974      -0.01929102 </v>
   <v>       0.00001474       0.01072883       0.00760720 </v>
   <v>       0.00000069      -0.01066892      -0.00753452 </v>
   <v>      -0.00000069       0.01066892       0.00753452 </v>
   <v>      -0.00001474      -0.01072883      -0.00760720 </v>
  </varray>
  <varray name="stress" >
   <v>      -5.68326525      -0.01266613       0.00712010 </v>
   <v>      -0.01266632      -5.13119354       0.39996449 </v>
   <v>       0.00712070       0.39996458      -5.39885922 </v>
  </varray>
  <energy>
   <i name="e_fr_energy">    -83.34796265 </i>
   <i name="e_wo_entrp">    -83.34787445 </i>
   <i name="e_0_energy">     -0.00017642 </i>
  </energy>
  <time name="totalsc">  143.44  143.79</time>
 </calculation>
 <calculation>
  <scstep>
   <time name="dav">   35.30   35.38</time>
   <time name="total">   39.39   39.48</time>
   <energy>
    <i name="alphaZ">    906.21123931 </i>
    <i name="ewald">  -9706.40622048 </i>
    <i name="hartreedc">  -2755.73892800 </i>
    <i name="XCdc">    464.53170989 </i>
    <i name="pawpsdc">  10568.57112987 </i>
    <i name="pawaedc"> -11183.47069215 </i>
    <i name="eentropy">     -0.00017641 </i>
    <i name="bandstr">   -585.70591176 </i>
    <i name="atom">  12208.65988691 </i>
    <i name="e_fr_energy">    -83.34796282 </i>
    <i name="e_wo_entrp">    -83.34778641 </i>
    <i name="e_0_energy">    -83.34787462 </i>
   </energy>
  </scstep>
  <scstep>
   <time name="diag">    6.73    6.75</time>
   <time name="diis">   16.19   16.23</time>
   <time name="orth">    0.75    0.75</time>
   <time name="total">   25.32   25.38</time>
   <energy>
    <i name="alphaZ">    906.21123931 </i>
    <i name="ewald">  -9706.40622048 </i>
    <i name="hartreedc">  -2755.73907358 </i>
    <i name="XCdc">    464.53170921 </i>
    <i name="pawpsdc">  10568.57422588 </i>
    <i name="pawaedc"> -11183.47355743 </i>
    <i name="eentropy">     -0.00017640 </i>
    <i name="bandstr">   -585.70599631 </i>
    <i name="atom">  12208.65988691 </i>
    <i name="e_fr_energy">    -83.34796289 </i>
    <i name="e_wo_entrp">    -83.34778649 </i>
    <i name="e_0_energy">    -83.34787469 </i>
   </energy>
  </scstep>
  <structure>
   <crystal>
    <varray name="basis" >
     <v>      -0.00002748      -2.07082035       2.92857220 </v>
     <v>       3.58674843      -0.00000163      -0.00004459 </v>
     <v>       0.00018699       8.32394656       5.88579710 </v>
    </varray>
    <i name="volume">    131.15199204 </i>
    <varray name="rec_basis" >
     <v>       0.00000276      -0.16096495       0.22764353 </v>
     <v>       0.27880405      -0.00000541      -0.00000121 </v>
     <v>       0.00000074       0.08009068       0.05663285 </v>
    </varray>
   </crystal>
   <varray name="positions" >
    <v>       0.00000029      -0.00000137       0.50044946 </v>
    <v>       0.49999971       0.50000137       0.74955054 </v>
    <v>       0.00000061       0.00000017       0.00044363 </v>
    <v>       0.49999939       0.49999983       0.24955637 </v>
    <v>      -0.00000095      -0.00000059       0.75010245 </v>
    <v>       0.49999969       0.50000020      -0.00010453 </v>
    <v>       0.00000031      -0.00000020       0.25010453 </v>
    <v>       0.50000095       0.50000059       0.49989755 </v>
   </varray>
  </structure>
  <varray name="forces" >
   <v>       0.00002415       0.02713447       0.01916344 </v>
   <v>      -0.00002415      -0.02713447      -0.01916344 </v>
   <v>       0.00000369       0.02772966       0.01958350 </v>
   <v>      -0.00000369      -0.02772966      -0.01958350 </v>
   <v>       0.00001442       0.01074693       0.00761864 </v>
   <v>       0.00000198      -0.01080944      -0.00763405 </v>
   <v>      -0.00000198       0.01080944       0.00763405 </v>
   <v>      -0.00001442      -0.01074693      -0.00761864 </v>
  </varray>
  <varray name="stress" >
   <v>      -5.68997407      -0.01322460       0.00763528 </v>
   <v>      -0.01322449      -5.11851300       0.41317224 </v>
   <v>       0.00763517       0.41317220      -5.39661667 </v>
  </varray>
  <energy>
   <i name="e_fr_energy">    -83.34796289 </i>
   <i name="e_wo_entrp">    -83.34787469 </i>
   <i name="e_0_energy">     -0.00017640 </i>
  </energy>
  <time name="totalsc">  140.17  140.52</time>
 </calculation>
 <calculation>
  <scstep>
   <time name="dav">   35.37   35.46</time>
   <time name="total">   39.50   39.60</time>
   <energy>
    <i name="alphaZ">    906.21123931 </i>
    <i name="ewald">  -9706.40622043 </i>
    <i name="hartreedc">  -2755.73909814 </i>
    <i name="XCdc">    464.53171028 </i>
    <i name="pawpsdc">  10568.57458248 </i>
    <i name="pawaedc"> -11183.47389087 </i>
    <i name="eentropy">     -0.00017640 </i>
    <i name="bandstr">   -585.70599619 </i>
    <i name="atom">  12208.65988691 </i>
    <i name="e_fr_energy">    -83.34796305 </i>
    <i name="e_wo_entrp">    -83.34778665 </i>
    <i name="e_0_energy">    -83.34787485 </i>
   </energy>
  </scstep>
  <scstep>
   <time name="diag">    6.75    6.77</time>
   <time name="diis">   16.12   16.16</time>
   <time name="orth">    0.75    0.76</time>
   <time name="total">   25.29   25.35</time>
   <energy>
    <i name="alphaZ">    906.21123931 </i>
    <i name="ewald">  -9706.40622043 </i>
    <i name="hartreedc">  -2755.73928627 </i>
    <i name="XCdc">    464.53171886 </i>
    <i name="pawpsdc">  10568.57729770 </i>
    <i name="pawaedc"> -11183.47645287 </i>
    <i name="eentropy">     -0.00017639 </i>
    <i name="bandstr">   -585.70596992 </i>
    <i name="atom">  12208.65988691 </i>
    <i name="e_fr_energy">    -83.34796310 </i>
    <i name="e_wo_entrp">    -83.34778671 </i>
    <i name="e_0_energy">    -83.34787490 </i>
   </energy>
  </scstep>
  <structure>
   <crystal>
    <varray name="basis" >
     <v>      -0.00002748      -2.07082035       2.92857220 </v>
     <v>       3.58674843      -0.00000163      -0.00004459 </v>
     <v>       0.00018699       8.32394657       5.88579711 </v>
    </varray>
    <i name="volume">    131.15199204 </i>
    <varray name="rec_basis" >
     <v>       0.00000276      -0.16096495       0.22764353 </v>
     <v>       0.27880405      -0.00000541      -0.00000121 </v>
     <v>       0.00000074       0.08009068       0.05663285 </v>
    </varray>
   </crystal>
   <varray name="positions" >
    <v>       0.00000029      -0.00000137       0.50044946 </v>
    <v>       0.49999971       0.50000137       0.74955054 </v>
    <v>       0.00000061       0.00000017       0.00044363 </v>
    <v>       0.49999939       0.49999983       0.24955637 </v>
    <v>      -0.00000095      -0.00000059       0.75010245 </v>
    <v>       0.49999969       0.50000020      -0.00010453 </v>
    <v>       0.00000031      -0.00000020       0.25010453 </v>
    <v>       0.50000095       0.50000059       0.49989755 </v>
   </varray>
  </structure>
  <varray name="forces" >
   <v>       0.00002363       0.02745767       0.01939188 </v>
   <v>      -0.00002363      -0.02745767      -0.01939188 </v>
   <v>       0.00000329       0.02801852       0.01978406 </v>
   <v>      -0.00000329      -0.02801852      -0.01978406 </v>
   <v>       0.00001424       0.01081876       0.00766815 </v>
   <v>       0.00000124      -0.01082950      -0.00764792 </v>
   <v>      -0.00000124       0.01082950       0.00764792 </v>
   <v>      -0.00001424      -0.01081876      -0.00766815 </v>
  </varray>
  <varray name="stress" >
   <v>      -5.69797370      -0.01252184       0.00732687 </v>
   <v>      -0.01252197      -5.11212831       0.42329433 </v>
   <v>       0.00732636       0.42329434      -5.39687701 </v>
  </varray>
  <energy>
   <i name="e_fr_energy">    -83.34796310 </i>
   <i name="e_wo_entrp">    -83.34787490 </i>
   <i name="e_0_energy">     -0.00017639 </i>
  </energy>
  <time name="totalsc">  140.08  140.51</time>
 </calculation>
 <calculation>
  <scstep>
   <time name="dav">   71.04   71.21</time>
   <time name="total">   75.11   75.29</time>
   <energy>
    <i name="alphaZ">    906.21123931 </i>
    <i name="ewald">  -9706.50108036 </i>
    <i name="hartreedc">  -2755.65270247 </i>
    <i name="XCdc">    464.53271910 </i>
    <i name="pawpsdc">  10568.57798164 </i>
    <i name="pawaedc"> -11183.47708460 </i>
    <i name="eentropy">     -0.00022468 </i>
    <i name="bandstr">   -585.68141965 </i>
    <i name="atom">  12208.65988691 </i>
    <i name="e_fr_energy">    -83.33068480 </i>
    <i name="e_wo_entrp">    -83.33046012 </i>
    <i name="e_0_energy">    -83.33057246 </i>
   </energy>
  </scstep>
  <scstep>
   <time name="diag">    6.72    6.73</time>
   <time name="diis">   51.84   51.96</time>
   <time name="orth">    0.75    0.76</time>
   <time name="total">   63.39   63.54</time>
   <energy>
    <i name="e_fr_energy">    -83.34818505 </i>
    <i name="e_wo_entrp">    -83.34792975 </i>
    <i name="e_0_energy">    -83.34805740 </i>
   </energy>
  </scstep>
  <scstep>
   <time name="diag">    6.72    6.73</time>
   <time name="diis">   56.35   56.48</time>
   <time name="orth">    0.75    0.75</time>
   <time name="total">   67.88   68.04</time>
   <energy>
    <i name="e_fr_energy">    -83.34754900 </i>
    <i name="e_wo_entrp">    -83.34737847 </i>
    <i name="e_0_energy">    -83.34746374 </i>
   </energy>
  </scstep>
  <scstep>
   <time name="diag">    6.72    6.73</time>
   <time name="diis">   53.37   53.50</time>
   <time name="orth">    0.75    0.76</time>
   <time name="total">   64.92   65.08</time>
   <energy>
    <i name="e_fr_energy">    -83.34548524 </i>
    <i name="e_wo_entrp">    -83.34525526 </i>
    <i name="e_0_energy">    -83.34537025 </i>
   </energy>
  </scstep>
  <scstep>
   <time name="diag">    6.71    6.73</time>
   <time name="diis">   48.81   48.92</time>
   <time name="orth">    0.76    0.76</time>
   <time name="total">   60.34   60.48</time>
   <energy>
    <i name="e_fr_energy">    -83.34546943 </i>
    <i name="e_wo_entrp">    -83.34525631 </i>
    <i name="e_0_energy">    -83.34536287 </i>
   </energy>
  </scstep>
  <scstep>
   <time name="diag">    6.74    6.75</time>
   <time name="diis">   37.09   37.18</time>
   <time name="orth">    0.76    0.76</time>
   <time name="total">   48.66   48.78</time>
   <energy>
    <i name="e_fr_energy">    -83.34554123 </i>
    <i name="e_wo_entrp">    -83.34532787 </i>
    <i name="e_0_energy">    -83.34543455 </i>
   </energy>
  </scstep>
  <scstep>
   <time name="diag">    6.77    6.78</time>
   <time name="diis">   29.25   29.32</time>
   <time name="orth">    0.75    0.76</time>
   <time name="total">   38.40   38.49</time>
   <energy>
    <i name="alphaZ">    906.21123931 </i>
    <i name="ewald">  -9706.50108036 </i>
    <i name="hartreedc">  -2755.66186326 </i>
    <i name="XCdc">    464.52816292 </i>
    <i name="pawpsdc">  10568.29277197 </i>
    <i name="pawaedc"> -11183.23422262 </i>
    <i name="eentropy">     -0.00022289 </i>
    <i name="bandstr">   -585.64017396 </i>
    <i name="atom">  12208.65988691 </i>
    <i name="e_fr_energy">    -83.34550199 </i>
    <i name="e_wo_entrp">    -83.34527910 </i>
    <i name="e_0_energy">    -83.34539054 </i>
   </energy>
  </scstep>
  <structure>
   <crystal>
    <varray name="basis" >
     <v>       0.00000800      -2.07416200       2.93333400 </v>
     <v>       3.59264600       0.00000000       0.00000000 </v>
     <v>       0.00026400       8.29679200       5.86666800 </v>
    </varray>
    <i name="volume">    131.15199204 </i>
    <varray name="rec_basis" >
     <v>       0.00000000      -0.16070561       0.22727399 </v>
     <v>       0.27834638      -0.00000555      -0.00000468 </v>
     <v>       0.00000000       0.08035281       0.05681751 </v>
    </varray>
   </crystal>
   <varray name="positions" >
    <v>      -0.00000002      -0.00000002       0.50000301 </v>
    <v>       0.50000002       0.50000002       0.74999699 </v>
    <v>      -0.00000002      -0.00000002       0.00000297 </v>
    <v>       0.50000002       0.50000002       0.24999703 </v>
    <v>      -0.00000000      -0.00000000       0.75000069 </v>
    <v>       0.50000000       0.50000000      -0.00000070 </v>
    <v>      -0.00000000      -0.00000000       0.25000070 </v>
    <v>       0.50000000       0.50000000       0.49999931 </v>
   </varray>
  </structure>
  <varray name="forces" >
   <v>      -0.00002482       0.08361452       0.05914740 </v>
   <v>       0.00002482      -0.08361452      -0.05914740 </v>
   <v>      -0.00002191       0.08315422       0.05879827 </v>
   <v>       0.00002191      -0.08315422      -0.05879827 </v>
   <v>       0.00000667       0.01992001       0.01408337 </v>
   <v>       0.00000241      -0.01875147      -0.01325448 </v>
   <v>      -0.00000241       0.01875147       0.01325448 </v>
   <v>      -0.00000667      -0.01992001      -0.01408337 </v>
  </varray>
  <varray name="stress" >
   <v>      -7.08682640      -0.01727979      -0.00030349 </v>
   <v>      -0.01727990      -3.16090268       2.77500200 </v>
   <v>      -0.00030383       2.77500215      -5.12487594 </v>
  </varray>
  <energy>
   <i name="e_fr_energy">    -83.34550199 </i>
   <i name="e_wo_entrp">    -83.34539054 </i>
   <i name="e_0_energy">     -0.00022289 </i>
  </energy>
