 vasp.5.4.4.18Apr17-6-g9f103f2a35 (build Apr 28 2018 00:24:27) complex          
  
 executed on             LinuxIFC date 2021.09.07  01:11:14
 running on   24 total cores
 distrk:  each k-point on   24 cores,    1 groups
 distr:  one band on NCORES_PER_BAND=   4 cores,    6 groups


--------------------------------------------------------------------------------------------------------


 INCAR:
 POTCAR:    PAW_PBE Fe_pv 02Aug2007               
 POTCAR:    PAW_PBE Fe_pv 02Aug2007               
   VRHFIN =Fe:  3pd7s1                                                          
   LEXCH  = PE                                                                  
   EATOM  =  2457.4239 eV,  180.6156 Ry                                         
                                                                                
   TITEL  = PAW_PBE Fe_pv 02Aug2007                                             
   LULTRA =        F    use ultrasoft PP ?                                      
   IUNSCR =        1    unscreen: 0-lin 1-nonlin 2-no                           
   RPACOR =    1.750    partial core radius                                     
   POMASS =   55.847; ZVAL   =   14.000    mass and valenz                      
   RCORE  =    2.200    outmost cutoff radius                                   
   RWIGS  =    2.200; RWIGS  =    1.164    wigner-seitz radius (au A)           
   ENMAX  =  293.238; ENMIN  =  219.928 eV                                      
   ICORE  =        3    local potential                                         
   LCOR   =        T    correct aug charges                                     
   LPAW   =        T    paw PP                                                  
   EAUG   =  578.342                                                            
   DEXC   =    0.000                                                            
   RMAX   =    2.249    core radius for proj-oper                               
   RAUG   =    1.300    factor for augmentation sphere                          
   RDEP   =    2.296    radius for radial grids                                 
   RDEPT  =    1.766    core radius for aug-charge                              
                                                                                
   Atomic configuration                                                         
    8 entries                                                                   
     n  l   j            E        occ.                                          
     1  0  0.50     -6993.8440   2.0000                                         
     2  0  0.50      -814.6047   2.0000                                         
     2  1  1.50      -693.3689   6.0000                                         
     3  0  0.50       -89.4732   2.0000                                         
     3  1  1.50       -55.6373   6.0000                                         
     3  2  2.50        -3.8151   7.0000                                         
     4  0  0.50        -4.2551   1.0000                                         
     4  3  2.50        -1.3606   0.0000                                         
   Description                                                                  
     l       E           TYP  RCUT    TYP  RCUT                                 
     1    -55.6372668     23  2.000                                             
     1     -5.4423304     23  2.000                                             
     2     -3.8151096     23  2.200                                             
     2     -5.1756922     23  2.200                                             
     0     -4.2550951     23  2.200                                             
     0     27.2116520     23  2.200                                             
     3     -1.3605826     23  2.200                                             
  local pseudopotential read in
  partial core-charges read in
  partial kinetic energy density read in
  atomic valenz-charges read in
  non local Contribution for L=           1  read in
    real space projection operators read in
  non local Contribution for L=           1  read in
    real space projection operators read in
  non local Contribution for L=           2  read in
    real space projection operators read in
  non local Contribution for L=           2  read in
    real space projection operators read in
  non local Contribution for L=           0  read in
    real space projection operators read in
  non local Contribution for L=           0  read in
    real space projection operators read in
    PAW grid and wavefunctions read in
 
   number of l-projection  operators is LMAX  =           6
   number of lm-projection operators is LMMAX =          18
 

 ----------------------------------------------------------------------------- 
|                                                                             |
|  ADVICE TO THIS USER RUNNING 'VASP/VAMP'   (HEAR YOUR MASTER'S VOICE ...):  |
|                                                                             |
|      You have a (more or less) 'small supercell' and for smaller cells      |
|      it is recommended  to use the reciprocal-space projection scheme!      |
|      The real space optimization is not  efficient for small cells and it   |
|      is also less accurate ...                                              |
|      Therefore set LREAL=.FALSE. in the  INCAR file                         |
|                                                                             |
 ----------------------------------------------------------------------------- 

 Optimization of the real space projectors (new method)

 maximal supplied QI-value         = 17.01
 optimisation between [QCUT,QGAM] = [ 12.42, 25.00] = [ 43.16,175.03] Ry 
 Optimized for a Real-space Cutoff    1.31 Angstroem

   l    n(q)    QCUT    max X(q) W(low)/X(q) W(high)/X(q)  e(spline) 
   1      9    12.415     4.267    0.74E-04    0.21E-03    0.25E-06
   1      9    12.415     5.750    0.12E-03    0.34E-03    0.39E-06
   2      9    12.415    53.656    0.15E-03    0.19E-03    0.27E-06
   2      9    12.415    49.521    0.16E-03    0.19E-03    0.28E-06
   0     10    12.415    31.246    0.29E-04    0.71E-04    0.14E-06
   0     10    12.415    12.201    0.24E-04    0.59E-04    0.12E-06
  PAW_PBE Fe_pv 02Aug2007               :
 energy of atom  1       EATOM=-2457.4239
 kinetic energy error for atom=    0.0055 (will be added to EATOM!!)
 
 
 POSCAR: Fe2                                     
  positions in direct lattice
  No initial velocities read in
 exchange correlation table for  LEXCH =        8
   RHO(1)=    0.500       N(1)  =     2000
   RHO(2)=  100.500       N(2)  =     4000
 


--------------------------------------------------------------------------------------------------------


 ion  position               nearest neighbor table
   1  0.000  0.000  0.000-   2 2.46   2 2.46   2 2.46   2 2.46   2 2.46   2 2.46   2 2.46   2 2.46

   2  0.500  0.500  0.500-   1 2.46   1 2.46   1 2.46   1 2.46   1 2.46   1 2.46   1 2.46   1 2.46

 
  LATTYP: Found a simple cubic cell.
 ALAT       =     2.8400520000
  
  Lattice vectors:
  
 A1 = (   2.8400520000,   0.0000000000,   0.0000000000)
 A2 = (   0.0000000000,   2.8400520000,   0.0000000000)
 A3 = (   0.0000000000,   0.0000000000,   2.8400520000)


Analysis of symmetry for initial positions (statically):
=====================================================================
 Subroutine PRICEL returns following result:
 
  LATTYP: Found a body centered cubic cell.
 ALAT       =     2.8400520000
  
  Lattice vectors:
  
 A1 = (   1.4200260000,   1.4200260000,   1.4200260000)
 A2 = (   1.4200260000,  -1.4200260000,  -1.4200260000)
 A3 = (  -1.4200260000,   1.4200260000,  -1.4200260000)
 
   2 primitive cells build up your supercell.
 

 Routine SETGRP: Setting up the symmetry group for a 
 simple cubic supercell.


 Subroutine GETGRP returns: Found 48 space group operations
 (whereof 48 operations were pure point group operations)
 out of a pool of 48 trial point group operations.


The static configuration has the point symmetry O_h .


Analysis of symmetry for dynamics (positions and initial velocities):
=====================================================================
 Subroutine PRICEL returns following result:
 
  LATTYP: Found a body centered cubic cell.
 ALAT       =     2.8400520000
  
  Lattice vectors:
  
 A1 = (   1.4200260000,   1.4200260000,   1.4200260000)
 A2 = (   1.4200260000,  -1.4200260000,  -1.4200260000)
 A3 = (  -1.4200260000,   1.4200260000,  -1.4200260000)
 
   2 primitive cells build up your supercell.
 

 Routine SETGRP: Setting up the symmetry group for a 
 simple cubic supercell.


 Subroutine GETGRP returns: Found 48 space group operations
 (whereof 48 operations were pure point group operations)
 out of a pool of 48 trial point group operations.


The dynamic configuration has the point symmetry O_h .


Analysis of structural, dynamic, and magnetic symmetry:
=====================================================================
 Subroutine PRICEL returns following result:
 
  LATTYP: Found a body centered cubic cell.
 ALAT       =     2.8400520000
  
  Lattice vectors:
  
 A1 = (   1.4200260000,   1.4200260000,   1.4200260000)
 A2 = (   1.4200260000,  -1.4200260000,  -1.4200260000)
 A3 = (  -1.4200260000,   1.4200260000,  -1.4200260000)
 
   2 primitive cells build up your supercell.
 

 Routine SETGRP: Setting up the symmetry group for a 
 simple cubic supercell.


 Subroutine GETGRP returns: Found 48 space group operations
 (whereof 48 operations were pure point group operations)
 out of a pool of 48 trial point group operations.


The magnetic configuration has the point symmetry O_h .


 Subroutine INISYM returns: Found 48 space group operations
 (whereof 48 operations are pure point group operations),
 and found     2 'primitive' translations

 
 
 KPOINTS: pymatgen with grid density = 2166 / numb

Automatic generation of k-mesh.
Space group operators:
 irot       det(A)        alpha          n_x          n_y          n_z        tau_x        tau_y        tau_z
    1     1.000000     0.000000     1.000000     0.000000     0.000000     0.000000     0.000000     0.000000
    2    -1.000000     0.000000     1.000000     0.000000     0.000000     0.000000     0.000000     0.000000
    3     1.000000   120.000000    -0.577350    -0.577350    -0.577350     0.000000     0.000000     0.000000
    4    -1.000000   120.000000    -0.577350    -0.577350    -0.577350     0.000000     0.000000     0.000000
    5     1.000000   120.000000     0.577350     0.577350     0.577350     0.000000     0.000000     0.000000
    6    -1.000000   120.000000     0.577350     0.577350     0.577350     0.000000     0.000000     0.000000
    7     1.000000    90.000000     0.000000     0.000000    -1.000000     0.000000     0.000000     0.000000
    8    -1.000000    90.000000     0.000000     0.000000    -1.000000     0.000000     0.000000     0.000000
    9     1.000000   180.000000     0.000000     0.707107     0.707107     0.000000     0.000000     0.000000
   10    -1.000000   180.000000     0.000000     0.707107     0.707107     0.000000     0.000000     0.000000
   11     1.000000    90.000000     0.000000     1.000000     0.000000     0.000000     0.000000     0.000000
   12    -1.000000    90.000000     0.000000     1.000000     0.000000     0.000000     0.000000     0.000000
   13     1.000000   180.000000     0.000000     0.000000     1.000000     0.000000     0.000000     0.000000
   14    -1.000000   180.000000     0.000000     0.000000     1.000000     0.000000     0.000000     0.000000
   15     1.000000   120.000000    -0.577350     0.577350     0.577350     0.000000     0.000000     0.000000
   16    -1.000000   120.000000    -0.577350     0.577350     0.577350     0.000000     0.000000     0.000000
   17     1.000000   120.000000    -0.577350     0.577350    -0.577350     0.000000     0.000000     0.000000
   18    -1.000000   120.000000    -0.577350     0.577350    -0.577350     0.000000     0.000000     0.000000
   19     1.000000    90.000000     0.000000     0.000000     1.000000     0.000000     0.000000     0.000000
   20    -1.000000    90.000000     0.000000     0.000000     1.000000     0.000000     0.000000     0.000000
   21     1.000000    90.000000    -1.000000     0.000000     0.000000     0.000000     0.000000     0.000000
   22    -1.000000    90.000000    -1.000000     0.000000     0.000000     0.000000     0.000000     0.000000
   23     1.000000   180.000000     0.707107     0.000000     0.707107     0.000000     0.000000     0.000000
   24    -1.000000   180.000000     0.707107     0.000000     0.707107     0.000000     0.000000     0.000000
   25     1.000000   120.000000     0.577350    -0.577350     0.577350     0.000000     0.000000     0.000000
   26    -1.000000   120.000000     0.577350    -0.577350     0.577350     0.000000     0.000000     0.000000
   27     1.000000   120.000000    -0.577350    -0.577350     0.577350     0.000000     0.000000     0.000000
   28    -1.000000   120.000000    -0.577350    -0.577350     0.577350     0.000000     0.000000     0.000000
   29     1.000000   180.000000     1.000000     0.000000     0.000000     0.000000     0.000000     0.000000
   30    -1.000000   180.000000     1.000000     0.000000     0.000000     0.000000     0.000000     0.000000
   31     1.000000    90.000000     0.000000    -1.000000     0.000000     0.000000     0.000000     0.000000
   32    -1.000000    90.000000     0.000000    -1.000000     0.000000     0.000000     0.000000     0.000000
   33     1.000000   180.000000     0.707107     0.707107     0.000000     0.000000     0.000000     0.000000
   34    -1.000000   180.000000     0.707107     0.707107     0.000000     0.000000     0.000000     0.000000
   35     1.000000    90.000000     1.000000     0.000000     0.000000     0.000000     0.000000     0.000000
   36    -1.000000    90.000000     1.000000     0.000000     0.000000     0.000000     0.000000     0.000000
   37     1.000000   120.000000     0.577350    -0.577350    -0.577350     0.000000     0.000000     0.000000
   38    -1.000000   120.000000     0.577350    -0.577350    -0.577350     0.000000     0.000000     0.000000
   39     1.000000   180.000000     0.000000     1.000000     0.000000     0.000000     0.000000     0.000000
   40    -1.000000   180.000000     0.000000     1.000000     0.000000     0.000000     0.000000     0.000000
   41     1.000000   120.000000     0.577350     0.577350    -0.577350     0.000000     0.000000     0.000000
   42    -1.000000   120.000000     0.577350     0.577350    -0.577350     0.000000     0.000000     0.000000
   43     1.000000   180.000000     0.000000    -0.707107     0.707107     0.000000     0.000000     0.000000
   44    -1.000000   180.000000     0.000000    -0.707107     0.707107     0.000000     0.000000     0.000000
   45     1.000000   180.000000     0.707107    -0.707107     0.000000     0.000000     0.000000     0.000000
   46    -1.000000   180.000000     0.707107    -0.707107     0.000000     0.000000     0.000000     0.000000
   47     1.000000   180.000000     0.707107     0.000000    -0.707107     0.000000     0.000000     0.000000
   48    -1.000000   180.000000     0.707107     0.000000    -0.707107     0.000000     0.000000     0.000000
 
 Subroutine IBZKPT returns following result:
 ===========================================
 
 Found     35 irreducible k-points:
 
 Following reciprocal coordinates:
            Coordinates               Weight
  0.050000  0.050000  0.050000      8.000000
  0.150000  0.050000  0.050000     24.000000
  0.250000  0.050000  0.050000     24.000000
  0.350000  0.050000  0.050000     24.000000
  0.450000  0.050000  0.050000     24.000000
  0.150000  0.150000  0.050000     24.000000
  0.250000  0.150000  0.050000     48.000000
  0.350000  0.150000  0.050000     48.000000
  0.450000  0.150000  0.050000     48.000000
  0.250000  0.250000  0.050000     24.000000
  0.350000  0.250000  0.050000     48.000000
  0.450000  0.250000  0.050000     48.000000
  0.350000  0.350000  0.050000     24.000000
  0.450000  0.350000  0.050000     48.000000
  0.450000  0.450000  0.050000     24.000000
  0.150000  0.150000  0.150000      8.000000
  0.250000  0.150000  0.150000     24.000000
  0.350000  0.150000  0.150000     24.000000
  0.450000  0.150000  0.150000     24.000000
  0.250000  0.250000  0.150000     24.000000
  0.350000  0.250000  0.150000     48.000000
  0.450000  0.250000  0.150000     48.000000
  0.350000  0.350000  0.150000     24.000000
  0.450000  0.350000  0.150000     48.000000
  0.450000  0.450000  0.150000     24.000000
  0.250000  0.250000  0.250000      8.000000
  0.350000  0.250000  0.250000     24.000000
  0.450000  0.250000  0.250000     24.000000
  0.350000  0.350000  0.250000     24.000000
  0.450000  0.350000  0.250000     48.000000
  0.450000  0.450000  0.250000     24.000000
  0.350000  0.350000  0.350000      8.000000
  0.450000  0.350000  0.350000     24.000000
  0.450000  0.450000  0.350000     24.000000
  0.450000  0.450000  0.450000      8.000000
 
 Following cartesian coordinates:
            Coordinates               Weight
  0.017605  0.017605  0.017605      8.000000
  0.052816  0.017605  0.017605     24.000000
  0.088027  0.017605  0.017605     24.000000
  0.123237  0.017605  0.017605     24.000000
  0.158448  0.017605  0.017605     24.000000
  0.052816  0.052816  0.017605     24.000000
  0.088027  0.052816  0.017605     48.000000
  0.123237  0.052816  0.017605     48.000000
  0.158448  0.052816  0.017605     48.000000
  0.088027  0.088027  0.017605     24.000000
  0.123237  0.088027  0.017605     48.000000
  0.158448  0.088027  0.017605     48.000000
  0.123237  0.123237  0.017605     24.000000
  0.158448  0.123237  0.017605     48.000000
  0.158448  0.158448  0.017605     24.000000
  0.052816  0.052816  0.052816      8.000000
  0.088027  0.052816  0.052816     24.000000
  0.123237  0.052816  0.052816     24.000000
  0.158448  0.052816  0.052816     24.000000
  0.088027  0.088027  0.052816     24.000000
  0.123237  0.088027  0.052816     48.000000
  0.158448  0.088027  0.052816     48.000000
  0.123237  0.123237  0.052816     24.000000
  0.158448  0.123237  0.052816     48.000000
  0.158448  0.158448  0.052816     24.000000
  0.088027  0.088027  0.088027      8.000000
  0.123237  0.088027  0.088027     24.000000
  0.158448  0.088027  0.088027     24.000000
  0.123237  0.123237  0.088027     24.000000
  0.158448  0.123237  0.088027     48.000000
  0.158448  0.158448  0.088027     24.000000
  0.123237  0.123237  0.123237      8.000000
  0.158448  0.123237  0.123237     24.000000
  0.158448  0.158448  0.123237     24.000000
  0.158448  0.158448  0.158448      8.000000
 
 TETIRR: Found    466 inequivalent tetrahedra from     6000


--------------------------------------------------------------------------------------------------------




 Dimension of arrays:
   k-points           NKPTS =     35   k-points in BZ     NKDIM =     35   number of bands    NBANDS=     24
   number of dos      NEDOS =    301   number of ions     NIONS =      2
   non local maximal  LDIM  =      6   non local SUM 2l+1 LMDIM =     18
   total plane-waves  NPLWV =  13824
   max r-space proj   IRMAX =   5690   max aug-charges    IRDMAX=  18070
   dimension x,y,z NGX =    24 NGY =   24 NGZ =   24
   dimension x,y,z NGXF=    48 NGYF=   48 NGZF=   48
   support grid    NGXF=    48 NGYF=   48 NGZF=   48
   ions per type =               2
   NGX,Y,Z   is equivalent  to a cutoff of  14.05, 14.05, 14.05 a.u.
   NGXF,Y,Z  is equivalent  to a cutoff of  28.10, 28.10, 28.10 a.u.

 SYSTEM =  unknown system                          
 POSCAR =  Fe2                                     

 Startparameter for this run:
   NWRITE =      2    write-flag & timer
   PREC   = accura    normal or accurate (medium, high low for compatibility)
   ISTART =      0    job   : 0-new  1-cont  2-samecut
   ICHARG =      2    charge: 1-file 2-atom 10-const
   ISPIN  =      2    spin polarized calculation?
   LNONCOLLINEAR =      F non collinear calculations
   LSORBIT =      F    spin-orbit coupling
   INIWAV =      1    electr: 0-lowe 1-rand  2-diag
   LASPH  =      F    aspherical Exc in radial PAW
   METAGGA=      F    non-selfconsistent MetaGGA calc.

 Electronic Relaxation 1
   ENCUT  =  600.0 eV  44.10 Ry    6.64 a.u.   5.67  5.67  5.67*2*pi/ulx,y,z
   ENINI  =  600.0     initial cutoff
   ENAUG  =  578.3 eV  augmentation charge cutoff
   NELM   =    100;   NELMIN=  2; NELMDL= -5     # of ELM steps 
   EDIFF  = 0.1E-06   stopping-criterion for ELM
   LREAL  =      T    real-space projection
   NLSPLINE    = F    spline interpolate recip. space projectors
   LCOMPAT=      F    compatible to vasp.4.4
   GGA_COMPAT  = T    GGA compatible to vasp.4.4-vasp.4.6
   LMAXPAW     = -100 max onsite density
   LMAXMIX     =    2 max onsite mixed and CHGCAR
   VOSKOWN=      0    Vosko Wilk Nusair interpolation
   ROPT   =   -0.00025
 Ionic relaxation
   EDIFFG = 0.1E-05   stopping-criterion for IOM
   NSW    =      0    number of steps for IOM
   NBLOCK =      1;   KBLOCK =      1    inner block; outer block 
   IBRION =     -1    ionic relax: 0-MD 1-quasi-New 2-CG
   NFREE  =      0    steps in history (QN), initial steepest desc. (CG)
   ISIF   =      3    stress and relaxation
   IWAVPR =     10    prediction:  0-non 1-charg 2-wave 3-comb
   ISYM   =      2    0-nonsym 1-usesym 2-fastsym
   LCORR  =      T    Harris-Foulkes like correction to forces

   POTIM  = 0.5000    time-step for ionic-motion
   TEIN   =    0.0    initial temperature
   TEBEG  =    0.0;   TEEND  =   0.0 temperature during run
   SMASS  =  -3.00    Nose mass-parameter (am)
   estimated Nose-frequenzy (Omega)   =  0.10E-29 period in steps =****** mass=  -0.184E-27a.u.
   SCALEE = 1.0000    scale energy and forces
   NPACO  =    256;   APACO  = 16.0  distance and # of slots for P.C.
   PSTRESS=    0.0 pullay stress

  Mass of Ions in am
   POMASS =  55.85
  Ionic Valenz
   ZVAL   =  14.00
  Atomic Wigner-Seitz radii
   RWIGS  =  -1.00
  virtual crystal weights 
   VCA    =   1.00
   NELECT =      28.0000    total number of electrons
   NUPDOWN=      -1.0000    fix difference up-down

 DOS related values:
   EMIN   =  10.00;   EMAX   =-10.00  energy-range for DOS
   EFERMI =   0.00
   ISMEAR =    -5;   SIGMA  =   0.05  broadening in eV -4-tet -1-fermi 0-gaus

 Electronic relaxation 2 (details)
   IALGO  =     38    algorithm
   LDIAG  =      T    sub-space diagonalisation (order eigenvalues)
   LSUBROT=      F    optimize rotation matrix (better conditioning)
   TURBO    =      0    0=normal 1=particle mesh
   IRESTART =      0    0=no restart 2=restart with 2 vectors
   NREBOOT  =      0    no. of reboots
   NMIN     =      0    reboot dimension
   EREF     =   0.00    reference energy to select bands
   IMIX   =      4    mixing-type and parameters
     AMIX     =   0.40;   BMIX     =  1.00
     AMIX_MAG =   1.60;   BMIX_MAG =  1.00
     AMIN     =   0.10
     WC   =   100.;   INIMIX=   1;  MIXPRE=   1;  MAXMIX= -45

 Intra band minimization:
   WEIMIN = 0.0000     energy-eigenvalue tresh-hold
   EBREAK =  0.10E-08  absolut break condition
   DEPER  =   0.30     relativ break condition  

   TIME   =   0.40     timestep for ELM

  volume/ion in A,a.u.               =      11.45        77.29
  Fermi-wavevector in a.u.,A,eV,Ry     =   1.750389  3.307755 41.686364  3.063861
  Thomas-Fermi vector in A             =   2.821117
 
 Write flags
   LWAVE        =      F    write WAVECAR
   LDOWNSAMPLE  =      F    k-point downsampling of WAVECAR
   LCHARG       =      F    write CHGCAR
   LVTOT        =      F    write LOCPOT, total local potential
   LVHAR        =      F    write LOCPOT, Hartree potential only
   LELF         =      F    write electronic localiz. function (ELF)
   LORBIT       =     11    0 simple, 1 ext, 2 COOP (PROOUT), +10 PAW based schemes


 Dipole corrections
   LMONO  =      F    monopole corrections only (constant potential shift)
   LDIPOL =      F    correct potential (dipole corrections)
   IDIPOL =      0    1-x, 2-y, 3-z, 4-all directions 
   EPSILON=  1.0000000 bulk dielectric constant

 Exchange correlation treatment:
   GGA     =    --    GGA type
   LEXCH   =     8    internal setting for exchange type
   VOSKOWN=      0    Vosko Wilk Nusair interpolation
   LHFCALC =     F    Hartree Fock is set to
   LHFONE  =     F    Hartree Fock one center treatment
   AEXX    =    0.0000 exact exchange contribution

 Linear response parameters
   LEPSILON=     F    determine dielectric tensor
   LRPA    =     F    only Hartree local field effects (RPA)
   LNABLA  =     F    use nabla operator in PAW spheres
   LVEL    =     F    velocity operator in full k-point grid
   LINTERFAST=   F  fast interpolation
   KINTER  =     0    interpolate to denser k-point grid
   CSHIFT  =0.1000    complex shift for real part using Kramers Kronig
   OMEGAMAX=  -1.0    maximum frequency
   DEG_THRESHOLD= 0.2000000E-02 threshold for treating states as degnerate
   RTIME   =   -0.100 relaxation time in fs
  (WPLASMAI=    0.000 imaginary part of plasma frequency in eV, 0.658/RTIME)
   DFIELD  = 0.0000000 0.0000000 0.0000000 field for delta impulse in time
 
 Orbital magnetization related:
   ORBITALMAG=     F  switch on orbital magnetization
   LCHIMAG   =     F  perturbation theory with respect to B field
   DQ        =  0.001000  dq finite difference perturbation B field
   LLRAUG    =     F  two centre corrections for induced B field



--------------------------------------------------------------------------------------------------------


 Static calculation
 charge density and potential will be updated during run
 spin polarized calculation
 Variant of blocked Davidson
 Davidson routine will perform the subspace rotation
 perform sub-space diagonalisation
    after iterative eigenvector-optimisation
 modified Broyden-mixing scheme, WC =      100.0
 initial mixing is a Kerker type mixing with AMIX =  0.4000 and BMIX =      1.0000
 Hartree-type preconditioning will be used
 using additional bands           10
 real space projection scheme for non local part
 use partial core corrections
 calculate Harris-corrections to forces 
   (improved forces if not selfconsistent)
 use gradient corrections 
 use of overlap-Matrix (Vanderbilt PP)
 Fermi weights with tetrahedron method with Bloechl corrections


--------------------------------------------------------------------------------------------------------


  energy-cutoff  :      600.00
  volume of cell :       22.91
      direct lattice vectors                 reciprocal lattice vectors
     2.840052000  0.000000000  0.000000000     0.352106229  0.000000000  0.000000000
     0.000000000  2.840052000  0.000000000     0.000000000  0.352106229  0.000000000
     0.000000000  0.000000000  2.840052000     0.000000000  0.000000000  0.352106229

  length of vectors
     2.840052000  2.840052000  2.840052000     0.352106229  0.352106229  0.352106229


 
 k-points in units of 2pi/SCALE and weight: pymatgen with grid density = 2166 / numb
   0.01760531  0.01760531  0.01760531       0.008
   0.05281593  0.01760531  0.01760531       0.024
   0.08802656  0.01760531  0.01760531       0.024
   0.12323718  0.01760531  0.01760531       0.024
   0.15844780  0.01760531  0.01760531       0.024
   0.05281593  0.05281593  0.01760531       0.024
   0.08802656  0.05281593  0.01760531       0.048
   0.12323718  0.05281593  0.01760531       0.048
   0.15844780  0.05281593  0.01760531       0.048
   0.08802656  0.08802656  0.01760531       0.024
   0.12323718  0.08802656  0.01760531       0.048
   0.15844780  0.08802656  0.01760531       0.048
   0.12323718  0.12323718  0.01760531       0.024
   0.15844780  0.12323718  0.01760531       0.048
   0.15844780  0.15844780  0.01760531       0.024
   0.05281593  0.05281593  0.05281593       0.008
   0.08802656  0.05281593  0.05281593       0.024
   0.12323718  0.05281593  0.05281593       0.024
   0.15844780  0.05281593  0.05281593       0.024
   0.08802656  0.08802656  0.05281593       0.024
   0.12323718  0.08802656  0.05281593       0.048
   0.15844780  0.08802656  0.05281593       0.048
   0.12323718  0.12323718  0.05281593       0.024
   0.15844780  0.12323718  0.05281593       0.048
   0.15844780  0.15844780  0.05281593       0.024
   0.08802656  0.08802656  0.08802656       0.008
   0.12323718  0.08802656  0.08802656       0.024
   0.15844780  0.08802656  0.08802656       0.024
   0.12323718  0.12323718  0.08802656       0.024
   0.15844780  0.12323718  0.08802656       0.048
   0.15844780  0.15844780  0.08802656       0.024
   0.12323718  0.12323718  0.12323718       0.008
   0.15844780  0.12323718  0.12323718       0.024
   0.15844780  0.15844780  0.12323718       0.024
   0.15844780  0.15844780  0.15844780       0.008
 
 k-points in reciprocal lattice and weights: pymatgen with grid density = 2166 / numb
   0.05000000  0.05000000  0.05000000       0.008
   0.15000000  0.05000000  0.05000000       0.024
   0.25000000  0.05000000  0.05000000       0.024
   0.35000000  0.05000000  0.05000000       0.024
   0.45000000  0.05000000  0.05000000       0.024
   0.15000000  0.15000000  0.05000000       0.024
   0.25000000  0.15000000  0.05000000       0.048
   0.35000000  0.15000000  0.05000000       0.048
   0.45000000  0.15000000  0.05000000       0.048
   0.25000000  0.25000000  0.05000000       0.024
   0.35000000  0.25000000  0.05000000       0.048
   0.45000000  0.25000000  0.05000000       0.048
   0.35000000  0.35000000  0.05000000       0.024
   0.45000000  0.35000000  0.05000000       0.048
   0.45000000  0.45000000  0.05000000       0.024
   0.15000000  0.15000000  0.15000000       0.008
   0.25000000  0.15000000  0.15000000       0.024
   0.35000000  0.15000000  0.15000000       0.024
   0.45000000  0.15000000  0.15000000       0.024
   0.25000000  0.25000000  0.15000000       0.024
   0.35000000  0.25000000  0.15000000       0.048
   0.45000000  0.25000000  0.15000000       0.048
   0.35000000  0.35000000  0.15000000       0.024
   0.45000000  0.35000000  0.15000000       0.048
   0.45000000  0.45000000  0.15000000       0.024
   0.25000000  0.25000000  0.25000000       0.008
   0.35000000  0.25000000  0.25000000       0.024
   0.45000000  0.25000000  0.25000000       0.024
   0.35000000  0.35000000  0.25000000       0.024
   0.45000000  0.35000000  0.25000000       0.048
   0.45000000  0.45000000  0.25000000       0.024
   0.35000000  0.35000000  0.35000000       0.008
   0.45000000  0.35000000  0.35000000       0.024
   0.45000000  0.45000000  0.35000000       0.024
   0.45000000  0.45000000  0.45000000       0.008
 
 position of ions in fractional coordinates (direct lattice) 
   0.00000000  0.00000000  0.00000000
   0.50000000  0.50000000  0.50000000
 
 position of ions in cartesian coordinates  (Angst):
   0.00000000  0.00000000  0.00000000
   1.42002600  1.42002600  1.42002600
 


--------------------------------------------------------------------------------------------------------


 k-point  1 :   0.0500 0.0500 0.0500  plane waves:     754
 k-point  2 :   0.1500 0.0500 0.0500  plane waves:     761
 k-point  3 :   0.2500 0.0500 0.0500  plane waves:     768
 k-point  4 :   0.3500 0.0500 0.0500  plane waves:     776
 k-point  5 :   0.4500 0.0500 0.0500  plane waves:     776
 k-point  6 :   0.1500 0.1500 0.0500  plane waves:     764
 k-point  7 :   0.2500 0.1500 0.0500  plane waves:     767
 k-point  8 :   0.3500 0.1500 0.0500  plane waves:     764
 k-point  9 :   0.4500 0.1500 0.0500  plane waves:     769
 k-point 10 :   0.2500 0.2500 0.0500  plane waves:     769
 k-point 11 :   0.3500 0.2500 0.0500  plane waves:     760
 k-point 12 :   0.4500 0.2500 0.0500  plane waves:     772
 k-point 13 :   0.3500 0.3500 0.0500  plane waves:     760
 k-point 14 :   0.4500 0.3500 0.0500  plane waves:     770
 k-point 15 :   0.4500 0.4500 0.0500  plane waves:     766
 k-point 16 :   0.1500 0.1500 0.1500  plane waves:     766
 k-point 17 :   0.2500 0.1500 0.1500  plane waves:     761
 k-point 18 :   0.3500 0.1500 0.1500  plane waves:     768
 k-point 19 :   0.4500 0.1500 0.1500  plane waves:     770
 k-point 20 :   0.2500 0.2500 0.1500  plane waves:     763
 k-point 21 :   0.3500 0.2500 0.1500  plane waves:     767
 k-point 22 :   0.4500 0.2500 0.1500  plane waves:     767
 k-point 23 :   0.3500 0.3500 0.1500  plane waves:     765
 k-point 24 :   0.4500 0.3500 0.1500  plane waves:     762
 k-point 25 :   0.4500 0.4500 0.1500  plane waves:     763
 k-point 26 :   0.2500 0.2500 0.2500  plane waves:     751
 k-point 27 :   0.3500 0.2500 0.2500  plane waves:     756
 k-point 28 :   0.4500 0.2500 0.2500  plane waves:     764
 k-point 29 :   0.3500 0.3500 0.2500  plane waves:     764
 k-point 30 :   0.4500 0.3500 0.2500  plane waves:     762
 k-point 31 :   0.4500 0.4500 0.2500  plane waves:     758
 k-point 32 :   0.3500 0.3500 0.3500  plane waves:     759
 k-point 33 :   0.4500 0.3500 0.3500  plane waves:     752
 k-point 34 :   0.4500 0.4500 0.3500  plane waves:     753
 k-point 35 :   0.4500 0.4500 0.4500  plane waves:     747

 maximum and minimum number of plane-waves per node :       205      172

 maximum number of plane-waves:       776
 maximum index in each direction: 
   IXMAX=    5   IYMAX=    5   IZMAX=    5
   IXMIN=   -6   IYMIN=   -6   IZMIN=   -6


 real space projection operators:
  total allocation   :       1532.53 KBytes
  max/ min on nodes  :        387.28        381.66


 parallel 3D FFT for wavefunctions:
    minimum data exchange during FFTs selected (reduces bandwidth)
 parallel 3D FFT for charge:
    minimum data exchange during FFTs selected (reduces bandwidth)


 total amount of memory used by VASP MPI-rank0    32549. kBytes
=======================================================================

   base      :      30000. kBytes
   nonlr-proj:        666. kBytes
   fftplans  :        262. kBytes
   grid      :        623. kBytes
   one-center:         31. kBytes
   wavefun   :        967. kBytes
 
     INWAV:  cpu time    0.0000: real time    0.0001
 Broyden mixing: mesh for mixing (old mesh)
   NGX = 11   NGY = 11   NGZ = 11
  (NGX  = 48   NGY  = 48   NGZ  = 48)
  gives a total of   1331 points

 initial charge density was supplied:
 charge density of overlapping atoms calculated
 number of electron      28.0000000 magnetization      10.0000000
 keeping initial charge density in first step


--------------------------------------------------------------------------------------------------------


 Maximum index for non-local projection operator         1377
 Maximum index for augmentation-charges          805 (set IRDMAX)


--------------------------------------------------------------------------------------------------------


 First call to EWALD:  gamma=   0.624
 Maximum number of real-space cells 3x 3x 3
 Maximum number of reciprocal cells 3x 3x 3

    FEWALD:  cpu time    0.0012: real time    0.0013


--------------------------------------- Iteration      1(   1)  ---------------------------------------


    POTLOK:  cpu time    0.0078: real time    0.0079
    SETDIJ:  cpu time    0.0059: real time    0.0059
     EDDAV:  cpu time    0.4452: real time    0.4609
 BZINTS: Fermi energy: 20.725128; 28.000000 electrons
         Band energy: -95.971842;  BLOECHL correction: -0.165198
       DOS:  cpu time    0.0345: real time    0.0345
    --------------------------------------------
      LOOP:  cpu time    0.4933: real time    0.5092

 eigenvalue-minimisations  :  3480
 total energy-change (2. order) : 0.2264476E+03  (-0.1934252E+04)
 number of electron      28.0000000 magnetization      10.0000000
 augmentation part       28.0000000 magnetization      10.0000000

 Free energy of the ion-electron system (eV)
  ---------------------------------------------------
  alpha Z        PSCENC =       218.87048721
  Ewald energy   TEWEN  =     -3616.56080017
  -Hartree energ DENC   =     -1162.86386254
  -exchange      EXHF   =         0.00000000
  -V(xc)+E(xc)   XCENC  =       147.54621923
  PAW double counting   =      3997.93860218    -4177.34792201
  entropy T*S    EENTRO =         0.00000000
  eigenvalues    EBANDS =       -95.97184246
  atomic energy  EATOM  =      4914.83670156
  Solvation  Ediel_sol  =         0.00000000
  ---------------------------------------------------
  free energy    TOTEN  =       226.44758300 eV

  energy without entropy =      226.44758300  energy(sigma->0) =      226.44758300


--------------------------------------------------------------------------------------------------------




--------------------------------------- Iteration      1(   2)  ---------------------------------------


     EDDAV:  cpu time    0.4261: real time    0.4320
 BZINTS: Fermi energy: 12.184430; 28.000000 electrons
         Band energy:-331.876709;  BLOECHL correction: -0.069801
       DOS:  cpu time    0.0345: real time    0.0346
    --------------------------------------------
      LOOP:  cpu time    0.4606: real time    0.4666

 eigenvalue-minimisations  :  3456
 total energy-change (2. order) :-0.2359049E+03  (-0.2259706E+03)
 number of electron      28.0000000 magnetization      10.0000000
 augmentation part       28.0000000 magnetization      10.0000000

 Free energy of the ion-electron system (eV)
  ---------------------------------------------------
  alpha Z        PSCENC =       218.87048721
  Ewald energy   TEWEN  =     -3616.56080017
  -Hartree energ DENC   =     -1162.86386254
  -exchange      EXHF   =         0.00000000
  -V(xc)+E(xc)   XCENC  =       147.54621923
  PAW double counting   =      3997.93860218    -4177.34792201
  entropy T*S    EENTRO =         0.00000000
  eigenvalues    EBANDS =      -331.87670926
  atomic energy  EATOM  =      4914.83670156
  Solvation  Ediel_sol  =         0.00000000
  ---------------------------------------------------
  free energy    TOTEN  =        -9.45728380 eV

  energy without entropy =       -9.45728380  energy(sigma->0) =       -9.45728380


--------------------------------------------------------------------------------------------------------




--------------------------------------- Iteration      1(   3)  ---------------------------------------


     EDDAV:  cpu time    0.4645: real time    0.4656
 BZINTS: Fermi energy: 12.037322; 28.000000 electrons
         Band energy:-338.637669;  BLOECHL correction: -0.071285
       DOS:  cpu time    0.0290: real time    0.0291
    --------------------------------------------
      LOOP:  cpu time    0.4935: real time    0.4947

 eigenvalue-minimisations  :  3744
 total energy-change (2. order) :-0.6760960E+01  (-0.6748448E+01)
 number of electron      28.0000000 magnetization      10.0000000
 augmentation part       28.0000000 magnetization      10.0000000

 Free energy of the ion-electron system (eV)
  ---------------------------------------------------
  alpha Z        PSCENC =       218.87048721
  Ewald energy   TEWEN  =     -3616.56080017
  -Hartree energ DENC   =     -1162.86386254
  -exchange      EXHF   =         0.00000000
  -V(xc)+E(xc)   XCENC  =       147.54621923
  PAW double counting   =      3997.93860218    -4177.34792201
  entropy T*S    EENTRO =         0.00000000
  eigenvalues    EBANDS =      -338.63766928
  atomic energy  EATOM  =      4914.83670156
  Solvation  Ediel_sol  =         0.00000000
  ---------------------------------------------------
  free energy    TOTEN  =       -16.21824382 eV

  energy without entropy =      -16.21824382  energy(sigma->0) =      -16.21824382


--------------------------------------------------------------------------------------------------------




--------------------------------------- Iteration      1(   4)  ---------------------------------------


     EDDAV:  cpu time    0.4784: real time    0.4801
 BZINTS: Fermi energy: 12.036901; 28.000000 electrons
         Band energy:-338.693422;  BLOECHL correction: -0.071281
       DOS:  cpu time    0.0324: real time    0.0325
    --------------------------------------------
      LOOP:  cpu time    0.5108: real time    0.5125

 eigenvalue-minimisations  :  3888
 total energy-change (2. order) :-0.5575295E-01  (-0.5575555E-01)
 number of electron      28.0000000 magnetization      10.0000000
 augmentation part       28.0000000 magnetization      10.0000000

 Free energy of the ion-electron system (eV)
  ---------------------------------------------------
  alpha Z        PSCENC =       218.87048721
  Ewald energy   TEWEN  =     -3616.56080017
  -Hartree energ DENC   =     -1162.86386254
  -exchange      EXHF   =         0.00000000
  -V(xc)+E(xc)   XCENC  =       147.54621923
  PAW double counting   =      3997.93860218    -4177.34792201
  entropy T*S    EENTRO =         0.00000000
  eigenvalues    EBANDS =      -338.69342223
  atomic energy  EATOM  =      4914.83670156
  Solvation  Ediel_sol  =         0.00000000
  ---------------------------------------------------
  free energy    TOTEN  =       -16.27399677 eV

  energy without entropy =      -16.27399677  energy(sigma->0) =      -16.27399677


--------------------------------------------------------------------------------------------------------




--------------------------------------- Iteration      1(   5)  ---------------------------------------


     EDDAV:  cpu time    0.4568: real time    0.4580
 BZINTS: Fermi energy: 12.036899; 28.000000 electrons
         Band energy:-338.694455;  BLOECHL correction: -0.071281
       DOS:  cpu time    0.0333: real time    0.0334
    CHARGE:  cpu time    0.0150: real time    0.0151
    MIXING:  cpu time    0.0006: real time    0.0006
    --------------------------------------------
      LOOP:  cpu time    0.5057: real time    0.5071

 eigenvalue-minimisations  :  3720
 total energy-change (2. order) :-0.1032642E-02  (-0.1032650E-02)
 number of electron      28.0000000 magnetization       4.3576668
 augmentation part       15.9045946 magnetization       2.8338825

 Broyden mixing:
  rms(total) = 0.24989E+01    rms(broyden)= 0.24989E+01
  rms(prec ) = 0.39513E+01
  weight for this iteration     100.00

 Free energy of the ion-electron system (eV)
  ---------------------------------------------------
  alpha Z        PSCENC =       218.87048721
  Ewald energy   TEWEN  =     -3616.56080017
  -Hartree energ DENC   =     -1162.86386254
  -exchange      EXHF   =         0.00000000
  -V(xc)+E(xc)   XCENC  =       147.54621923
  PAW double counting   =      3997.93860218    -4177.34792201
  entropy T*S    EENTRO =         0.00000000
  eigenvalues    EBANDS =      -338.69445487
  atomic energy  EATOM  =      4914.83670156
  Solvation  Ediel_sol  =         0.00000000
  ---------------------------------------------------
  free energy    TOTEN  =       -16.27502941 eV

  energy without entropy =      -16.27502941  energy(sigma->0) =      -16.27502941


--------------------------------------------------------------------------------------------------------




--------------------------------------- Iteration      1(   6)  ---------------------------------------


    POTLOK:  cpu time    0.0060: real time    0.0061
    SETDIJ:  cpu time    0.0051: real time    0.0051
     EDDAV:  cpu time    0.4194: real time    0.4205
 BZINTS: Fermi energy:  9.266015; 28.000000 electrons
         Band energy:-409.579241;  BLOECHL correction: -0.036189
       DOS:  cpu time    0.0321: real time    0.0322
    CHARGE:  cpu time    0.0146: real time    0.0146
    MIXING:  cpu time    0.0005: real time    0.0005
    --------------------------------------------
      LOOP:  cpu time    0.4777: real time    0.4791

 eigenvalue-minimisations  :  3420
 total energy-change (2. order) :-0.1815552E+00  (-0.7493746E+00)
 number of electron      27.9999999 magnetization       4.5319056
 augmentation part       17.0680815 magnetization       3.5500418

 Broyden mixing:
  rms(total) = 0.69080E+00    rms(broyden)= 0.69069E+00
  rms(prec ) = 0.86601E+00
  weight for this iteration     100.00

 eigenvalues of (default mixing * dielectric matrix)
  average eigenvalue GAMMA=   0.8372
  0.8372

 Free energy of the ion-electron system (eV)
  ---------------------------------------------------
  alpha Z        PSCENC =       218.87048721
  Ewald energy   TEWEN  =     -3616.56080017
  -Hartree energ DENC   =     -1089.08458771
  -exchange      EXHF   =         0.00000000
  -V(xc)+E(xc)   XCENC  =       140.63893953
  PAW double counting   =      4113.77109629    -4289.34918012
  entropy T*S    EENTRO =         0.00000000
  eigenvalues    EBANDS =      -409.57924115
  atomic energy  EATOM  =      4914.83670156
  Solvation  Ediel_sol  =         0.00000000
  ---------------------------------------------------
  free energy    TOTEN  =       -16.45658456 eV

  energy without entropy =      -16.45658456  energy(sigma->0) =      -16.45658456


--------------------------------------------------------------------------------------------------------




--------------------------------------- Iteration      1(   7)  ---------------------------------------


    POTLOK:  cpu time    0.0059: real time    0.0060
    SETDIJ:  cpu time    0.0048: real time    0.0048
     EDDAV:  cpu time    0.4166: real time    0.4176
 BZINTS: Fermi energy:  9.762711; 28.000000 electrons
         Band energy:-395.189368;  BLOECHL correction: -0.033717
       DOS:  cpu time    0.0330: real time    0.0331
    CHARGE:  cpu time    0.0153: real time    0.0153
    MIXING:  cpu time    0.0004: real time    0.0004
    --------------------------------------------
      LOOP:  cpu time    0.4760: real time    0.4772

 eigenvalue-minimisations  :  3396
 total energy-change (2. order) :-0.5649018E-01  (-0.6151865E-01)
 number of electron      27.9999999 magnetization       4.4436527
 augmentation part       16.7743243 magnetization       3.5268154

 Broyden mixing:
  rms(total) = 0.43062E+00    rms(broyden)= 0.43059E+00
  rms(prec ) = 0.52592E+00
  weight for this iteration     100.00

 eigenvalues of (default mixing * dielectric matrix)
  average eigenvalue GAMMA=   0.7674
  0.9882  0.5466

 Free energy of the ion-electron system (eV)
  ---------------------------------------------------
  alpha Z        PSCENC =       218.87048721
  Ewald energy   TEWEN  =     -3616.56080017
  -Hartree energ DENC   =     -1099.07959737
  -exchange      EXHF   =         0.00000000
  -V(xc)+E(xc)   XCENC  =       141.33133967
  PAW double counting   =      4219.79730829    -4400.51914642
  entropy T*S    EENTRO =         0.00000000
  eigenvalues    EBANDS =      -395.18936752
  atomic energy  EATOM  =      4914.83670156
  Solvation  Ediel_sol  =         0.00000000
  ---------------------------------------------------
  free energy    TOTEN  =       -16.51307475 eV

  energy without entropy =      -16.51307475  energy(sigma->0) =      -16.51307475


--------------------------------------------------------------------------------------------------------




--------------------------------------- Iteration      1(   8)  ---------------------------------------


    POTLOK:  cpu time    0.0061: real time    0.0069
    SETDIJ:  cpu time    0.0050: real time    0.0050
     EDDAV:  cpu time    0.4611: real time    0.4624
 BZINTS: Fermi energy:  9.688926; 28.000000 electrons
         Band energy:-397.460791;  BLOECHL correction: -0.033974
       DOS:  cpu time    0.0329: real time    0.0330
    CHARGE:  cpu time    0.0146: real time    0.0146
    MIXING:  cpu time    0.0003: real time    0.0003
    --------------------------------------------
      LOOP:  cpu time    0.5201: real time    0.5222

 eigenvalue-minimisations  :  3756
 total energy-change (2. order) :-0.1005100E-01  (-0.1510594E-02)
 number of electron      27.9999999 magnetization       4.3699643
 augmentation part       16.8104908 magnetization       3.4533119

 Broyden mixing:
  rms(total) = 0.13698E+00    rms(broyden)= 0.13697E+00
  rms(prec ) = 0.21432E+00
  weight for this iteration     100.00

 eigenvalues of (default mixing * dielectric matrix)
  average eigenvalue GAMMA=   1.0474
  1.6986  0.8569  0.5867

 Free energy of the ion-electron system (eV)
  ---------------------------------------------------
  alpha Z        PSCENC =       218.87048721
  Ewald energy   TEWEN  =     -3616.56080017
  -Hartree energ DENC   =     -1095.15620280
  -exchange      EXHF   =         0.00000000
  -V(xc)+E(xc)   XCENC  =       141.10714011
  PAW double counting   =      4267.83546218    -4449.99512330
  entropy T*S    EENTRO =         0.00000000
  eigenvalues    EBANDS =      -397.46079054
  atomic energy  EATOM  =      4914.83670156
  Solvation  Ediel_sol  =         0.00000000
  ---------------------------------------------------
  free energy    TOTEN  =       -16.52312575 eV

  energy without entropy =      -16.52312575  energy(sigma->0) =      -16.52312575


--------------------------------------------------------------------------------------------------------




--------------------------------------- Iteration      1(   9)  ---------------------------------------


    POTLOK:  cpu time    0.0060: real time    0.0061
    SETDIJ:  cpu time    0.0048: real time    0.0048
     EDDAV:  cpu time    0.4462: real time    0.4473
 BZINTS: Fermi energy:  9.610578; 28.000000 electrons
         Band energy:-399.756453;  BLOECHL correction: -0.034526
       DOS:  cpu time    0.0339: real time    0.0340
    CHARGE:  cpu time    0.0148: real time    0.0149
    MIXING:  cpu time    0.0003: real time    0.0003
    --------------------------------------------
      LOOP:  cpu time    0.5060: real time    0.5073

 eigenvalue-minimisations  :  3660
 total energy-change (2. order) : 0.8175985E-02  (-0.5166829E-03)
 number of electron      27.9999999 magnetization       4.4016754
 augmentation part       16.8466926 magnetization       3.4830750

 Broyden mixing:
  rms(total) = 0.33720E-01    rms(broyden)= 0.33714E-01
  rms(prec ) = 0.45936E-01
  weight for this iteration     100.00

 eigenvalues of (default mixing * dielectric matrix)
  average eigenvalue GAMMA=   1.1853
  2.3392  1.0616  0.6986  0.6416

 Free energy of the ion-electron system (eV)
  ---------------------------------------------------
  alpha Z        PSCENC =       218.87048721
  Ewald energy   TEWEN  =     -3616.56080017
  -Hartree energ DENC   =     -1090.24365703
  -exchange      EXHF   =         0.00000000
  -V(xc)+E(xc)   XCENC  =       140.86449024
  PAW double counting   =      4344.24458685    -4528.77030565
  entropy T*S    EENTRO =         0.00000000
  eigenvalues    EBANDS =      -399.75645277
  atomic energy  EATOM  =      4914.83670156
  Solvation  Ediel_sol  =         0.00000000
  ---------------------------------------------------
  free energy    TOTEN  =       -16.51494976 eV

  energy without entropy =      -16.51494976  energy(sigma->0) =      -16.51494976


--------------------------------------------------------------------------------------------------------




--------------------------------------- Iteration      1(  10)  ---------------------------------------


    POTLOK:  cpu time    0.0060: real time    0.0061
    SETDIJ:  cpu time    0.0048: real time    0.0048
     EDDAV:  cpu time    0.4219: real time    0.4231
 BZINTS: Fermi energy:  9.624885; 28.000000 electrons
         Band energy:-399.218334;  BLOECHL correction: -0.034684
       DOS:  cpu time    0.0330: real time    0.0331
    CHARGE:  cpu time    0.0187: real time    0.0188
    MIXING:  cpu time    0.0004: real time    0.0004
    --------------------------------------------
      LOOP:  cpu time    0.4848: real time    0.4862

 eigenvalue-minimisations  :  3444
 total energy-change (2. order) : 0.1703098E-03  (-0.2250714E-03)
 number of electron      27.9999999 magnetization       4.4064929
 augmentation part       16.8347269 magnetization       3.4851327

 Broyden mixing:
  rms(total) = 0.44260E-02    rms(broyden)= 0.44259E-02
  rms(prec ) = 0.54593E-02
  weight for this iteration     100.00

 eigenvalues of (default mixing * dielectric matrix)
  average eigenvalue GAMMA=   1.1291
  2.4320  1.0999  0.7827  0.6971  0.6338

 Free energy of the ion-electron system (eV)
  ---------------------------------------------------
  alpha Z        PSCENC =       218.87048721
  Ewald energy   TEWEN  =     -3616.56080017
  -Hartree energ DENC   =     -1089.85343456
  -exchange      EXHF   =         0.00000000
  -V(xc)+E(xc)   XCENC  =       140.87176123
  PAW double counting   =      4373.09559031    -4558.55675088
  entropy T*S    EENTRO =         0.00000000
  eigenvalues    EBANDS =      -399.21833415
  atomic energy  EATOM  =      4914.83670156
  Solvation  Ediel_sol  =         0.00000000
  ---------------------------------------------------
  free energy    TOTEN  =       -16.51477945 eV

  energy without entropy =      -16.51477945  energy(sigma->0) =      -16.51477945


--------------------------------------------------------------------------------------------------------




--------------------------------------- Iteration      1(  11)  ---------------------------------------


    POTLOK:  cpu time    0.0060: real time    0.0061
    SETDIJ:  cpu time    0.0049: real time    0.0049
     EDDAV:  cpu time    0.4417: real time    0.4428
 BZINTS: Fermi energy:  9.623332; 28.000000 electrons
         Band energy:-399.250244;  BLOECHL correction: -0.034701
       DOS:  cpu time    0.0321: real time    0.0321
    CHARGE:  cpu time    0.0168: real time    0.0169
    MIXING:  cpu time    0.0004: real time    0.0004
    --------------------------------------------
      LOOP:  cpu time    0.5019: real time    0.5032

 eigenvalue-minimisations  :  3612
 total energy-change (2. order) :-0.5930870E-04  (-0.4935841E-05)
 number of electron      27.9999999 magnetization       4.4058941
 augmentation part       16.8352680 magnetization       3.4848010

 Broyden mixing:
  rms(total) = 0.24290E-02    rms(broyden)= 0.24288E-02
  rms(prec ) = 0.32701E-02
  weight for this iteration     100.00

 eigenvalues of (default mixing * dielectric matrix)
  average eigenvalue GAMMA=   1.2936
  2.3007  2.3007  1.0747  0.6330  0.7548  0.6976

 Free energy of the ion-electron system (eV)
  ---------------------------------------------------
  alpha Z        PSCENC =       218.87048721
  Ewald energy   TEWEN  =     -3616.56080017
  -Hartree energ DENC   =     -1089.84602985
  -exchange      EXHF   =         0.00000000
  -V(xc)+E(xc)   XCENC  =       140.87418448
  PAW double counting   =      4374.31547988    -4559.75461817
  entropy T*S    EENTRO =         0.00000000
  eigenvalues    EBANDS =      -399.25024370
  atomic energy  EATOM  =      4914.83670156
  Solvation  Ediel_sol  =         0.00000000
  ---------------------------------------------------
  free energy    TOTEN  =       -16.51483876 eV

  energy without entropy =      -16.51483876  energy(sigma->0) =      -16.51483876


--------------------------------------------------------------------------------------------------------




--------------------------------------- Iteration      1(  12)  ---------------------------------------


    POTLOK:  cpu time    0.0059: real time    0.0060
    SETDIJ:  cpu time    0.0048: real time    0.0048
     EDDAV:  cpu time    0.4594: real time    0.4606
 BZINTS: Fermi energy:  9.621791; 28.000000 electrons
         Band energy:-399.284823;  BLOECHL correction: -0.034714
       DOS:  cpu time    0.0329: real time    0.0330
    CHARGE:  cpu time    0.0145: real time    0.0146
    MIXING:  cpu time    0.0004: real time    0.0004
    --------------------------------------------
      LOOP:  cpu time    0.5180: real time    0.5194

 eigenvalue-minimisations  :  3780
 total energy-change (2. order) :-0.8307683E-05  (-0.4989935E-06)
 number of electron      27.9999999 magnetization       4.4056216
 augmentation part       16.8359851 magnetization       3.4847937

 Broyden mixing:
  rms(total) = 0.96016E-03    rms(broyden)= 0.96012E-03
  rms(prec ) = 0.13647E-02
  weight for this iteration     100.00

 eigenvalues of (default mixing * dielectric matrix)
  average eigenvalue GAMMA=   1.2308
  2.3868  2.3868  1.0834  0.7890  0.7169  0.6263  0.6263

 Free energy of the ion-electron system (eV)
  ---------------------------------------------------
  alpha Z        PSCENC =       218.87048721
  Ewald energy   TEWEN  =     -3616.56080017
  -Hartree energ DENC   =     -1089.89732039
  -exchange      EXHF   =         0.00000000
  -V(xc)+E(xc)   XCENC  =       140.87685105
  PAW double counting   =      4375.37414676    -4560.73009019
  entropy T*S    EENTRO =         0.00000000
  eigenvalues    EBANDS =      -399.28482291
  atomic energy  EATOM  =      4914.83670156
  Solvation  Ediel_sol  =         0.00000000
  ---------------------------------------------------
  free energy    TOTEN  =       -16.51484707 eV

  energy without entropy =      -16.51484707  energy(sigma->0) =      -16.51484707


--------------------------------------------------------------------------------------------------------




--------------------------------------- Iteration      1(  13)  ---------------------------------------


    POTLOK:  cpu time    0.0059: real time    0.0061
    SETDIJ:  cpu time    0.0048: real time    0.0048
     EDDAV:  cpu time    0.4288: real time    0.4298
 BZINTS: Fermi energy:  9.622393; 28.000000 electrons
         Band energy:-399.272430;  BLOECHL correction: -0.034706
       DOS:  cpu time    0.0294: real time    0.0295
    CHARGE:  cpu time    0.0144: real time    0.0144
    MIXING:  cpu time    0.0004: real time    0.0004
    --------------------------------------------
      LOOP:  cpu time    0.4837: real time    0.4849

 eigenvalue-minimisations  :  3516
 total energy-change (2. order) : 0.6768816E-05  (-0.1343488E-06)
 number of electron      27.9999999 magnetization       4.4054181
 augmentation part       16.8356829 magnetization       3.4844802

 Broyden mixing:
  rms(total) = 0.25598E-03    rms(broyden)= 0.25594E-03
  rms(prec ) = 0.35050E-03
  weight for this iteration     100.00

 eigenvalues of (default mixing * dielectric matrix)
  average eigenvalue GAMMA=   1.2906
  2.5177  2.4571  1.4745  1.0636  0.8094  0.6260  0.6883  0.6883

 Free energy of the ion-electron system (eV)
  ---------------------------------------------------
  alpha Z        PSCENC =       218.87048721
  Ewald energy   TEWEN  =     -3616.56080017
  -Hartree energ DENC   =     -1089.90447318
  -exchange      EXHF   =         0.00000000
  -V(xc)+E(xc)   XCENC  =       140.87675463
  PAW double counting   =      4375.49589280    -4560.85697286
  entropy T*S    EENTRO =         0.00000000
  eigenvalues    EBANDS =      -399.27243029
  atomic energy  EATOM  =      4914.83670156
  Solvation  Ediel_sol  =         0.00000000
  ---------------------------------------------------
  free energy    TOTEN  =       -16.51484030 eV

  energy without entropy =      -16.51484030  energy(sigma->0) =      -16.51484030


--------------------------------------------------------------------------------------------------------




--------------------------------------- Iteration      1(  14)  ---------------------------------------


    POTLOK:  cpu time    0.0060: real time    0.0061
    SETDIJ:  cpu time    0.0048: real time    0.0048
     EDDAV:  cpu time    0.3796: real time    0.3807
 BZINTS: Fermi energy:  9.622639; 28.000000 electrons
         Band energy:-399.267476;  BLOECHL correction: -0.034704
       DOS:  cpu time    0.0331: real time    0.0331
    CHARGE:  cpu time    0.0148: real time    0.0148
    MIXING:  cpu time    0.0005: real time    0.0005
    --------------------------------------------
      LOOP:  cpu time    0.4387: real time    0.4400

 eigenvalue-minimisations  :  2820
 total energy-change (2. order) : 0.1629255E-05  (-0.1605631E-07)
 number of electron      27.9999999 magnetization       4.4054351
 augmentation part       16.8355662 magnetization       3.4844626

 Broyden mixing:
  rms(total) = 0.62360E-04    rms(broyden)= 0.62140E-04
  rms(prec ) = 0.80901E-04
  weight for this iteration     100.00

 eigenvalues of (default mixing * dielectric matrix)
  average eigenvalue GAMMA=   1.2118
  2.6067  2.4662  1.2891  1.0502  0.8265  0.6319  0.6661  0.6849  0.6849

 Free energy of the ion-electron system (eV)
  ---------------------------------------------------
  alpha Z        PSCENC =       218.87048721
  Ewald energy   TEWEN  =     -3616.56080017
  -Hartree energ DENC   =     -1089.90699437
  -exchange      EXHF   =         0.00000000
  -V(xc)+E(xc)   XCENC  =       140.87658824
  PAW double counting   =      4375.49799498    -4560.86134003
  entropy T*S    EENTRO =         0.00000000
  eigenvalues    EBANDS =      -399.26747609
  atomic energy  EATOM  =      4914.83670156
  Solvation  Ediel_sol  =         0.00000000
  ---------------------------------------------------
  free energy    TOTEN  =       -16.51483867 eV

  energy without entropy =      -16.51483867  energy(sigma->0) =      -16.51483867


--------------------------------------------------------------------------------------------------------




--------------------------------------- Iteration      1(  15)  ---------------------------------------


    POTLOK:  cpu time    0.0060: real time    0.0063
    SETDIJ:  cpu time    0.0050: real time    0.0050
     EDDAV:  cpu time    0.2781: real time    0.2788
 BZINTS: Fermi energy:  9.622608; 28.000000 electrons
         Band energy:-399.268312;  BLOECHL correction: -0.034704
       DOS:  cpu time    0.0339: real time    0.0340
    --------------------------------------------
      LOOP:  cpu time    0.3230: real time    0.3241

 eigenvalue-minimisations  :  1752
 total energy-change (2. order) : 0.2410798E-07  (-0.1165342E-08)
 number of electron      27.9999999 magnetization       4.4054351
 augmentation part       16.8355662 magnetization       3.4844626

 Free energy of the ion-electron system (eV)
  ---------------------------------------------------
  alpha Z        PSCENC =       218.87048721
  Ewald energy   TEWEN  =     -3616.56080017
  -Hartree energ DENC   =     -1089.90661737
  -exchange      EXHF   =         0.00000000
  -V(xc)+E(xc)   XCENC  =       140.87661829
  PAW double counting   =      4375.49365210    -4560.85656865
  entropy T*S    EENTRO =         0.00000000
  eigenvalues    EBANDS =      -399.26831162
  atomic energy  EATOM  =      4914.83670156
  Solvation  Ediel_sol  =         0.00000000
  ---------------------------------------------------
  free energy    TOTEN  =       -16.51483864 eV

  energy without entropy =      -16.51483864  energy(sigma->0) =      -16.51483864


--------------------------------------------------------------------------------------------------------




 average (electrostatic) potential at core
  the test charge radii are     0.9500
  (the norm of the test charge is              1.0000)
       1 -73.6654       2 -73.6654
 
 
 
 E-fermi :   9.6226     XC(G=0): -13.6245     alpha+bet :-17.4163


 spin component 1

 k-point     1 :       0.0500    0.0500    0.0500
  band No.  band energies     occupation 
      1     -44.5601      1.00000
      2     -44.5601      1.00000
      3     -44.5459      1.00000
      4     -44.2891      1.00000
      5     -44.2744      1.00000
      6     -44.2744      1.00000
      7       1.3979      1.00000
      8       4.9384      1.00000
      9       4.9384      1.00000
     10       7.3048      1.00000
     11       7.3048      1.00000
     12       7.4309      1.00000
     13       8.5804      1.00000
     14       8.5804      1.00000
     15       9.4947      1.00000
     16       9.6871      0.60069
     17       9.6871      0.00978
     18      19.1991      0.00000
     19      19.1991      0.00000
     20      19.4412      0.00000
     21      25.8099      0.00000
     22      25.8099      0.00000
     23      30.6976      0.00000
     24      33.3487      0.00000

 k-point     2 :       0.1500    0.0500    0.0500
  band No.  band energies     occupation 
      1     -44.5662      1.00000
      2     -44.5454      1.00000
      3     -44.5238      1.00000
      4     -44.3209      1.00000
      5     -44.2876      1.00000
      6     -44.2799      1.00000
      7       1.8015      1.00000
      8       5.1062      1.00000
      9       5.1084      1.00000
     10       7.2463      1.00000
     11       7.2946      1.00000
     12       7.5991      1.00000
     13       8.4143      1.00000
     14       8.6554      1.00000
     15       9.1040      1.00000
     16       9.3725      1.02104
     17       9.6657      0.13602
     18      17.0984      0.00000
     19      19.9181      0.00000
     20      20.0953      0.00000
     21      25.9615      0.00000
     22      27.1437      0.00000
     23      31.5524      0.00000
     24      32.1501      0.00000

 k-point     3 :       0.2500    0.0500    0.0500
  band No.  band energies     occupation 
      1     -44.5634      1.00000
      2     -44.5176      1.00000
      3     -44.4931      1.00000
      4     -44.3686      1.00000
      5     -44.3130      1.00000
      6     -44.2999      1.00000
      7       2.5670      1.00000
      8       5.3675      1.00000
      9       5.4275      1.00000
     10       7.2424      1.00000
     11       7.2874      1.00000
     12       7.8416      1.00000
     13       8.1079      1.00000
     14       8.6066      1.00000
     15       8.7947      1.00000
     16       8.8889      1.00000
     17       9.4858      1.03911
     18      14.5752      0.00000
     19      21.1873      0.00000
     20      21.3581      0.00000
     21      26.2942      0.00000
     22      27.9717      0.00000
     23      29.6286      0.00000
     24      31.2958      0.00000

 k-point     4 :       0.3500    0.0500    0.0500
  band No.  band energies     occupation 
      1     -44.5490      1.00000
      2     -44.4798      1.00000
      3     -44.4551      1.00000
      4     -44.4239      1.00000
      5     -44.3484      1.00000
      6     -44.3313      1.00000
      7       3.5891      1.00000
      8       5.5401      1.00000
      9       5.8725      1.00000
     10       7.2458      1.00000
     11       7.3213      1.00000
     12       7.7680      1.00000
     13       8.1303      1.00000
     14       8.1502      1.00000
     15       8.3928      1.00000
     16       9.0192      1.00000
     17       9.2003      1.03867
     18      12.2830      0.00000
     19      22.7941      0.00000
     20      23.0069      0.00000
     21      26.8751      0.00000
     22      27.8745      0.00000
     23      28.6104      0.00000
     24      29.1472      0.00000

 k-point     5 :       0.4500    0.0500    0.0500
  band No.  band energies     occupation 
      1     -44.5202      1.00000
      2     -44.4771      1.00000
      3     -44.4359      1.00000
      4     -44.4129      1.00000
      5     -44.3906      1.00000
      6     -44.3702      1.00000
      7       4.6408      1.00000
      8       5.3580      1.00000
      9       6.3947      1.00000
     10       6.9174      1.00000
     11       7.4991      1.00000
     12       7.7311      1.00000
     13       7.7625      1.00000
     14       7.9854      1.00000
     15       8.4990      1.00000
     16       8.8574      1.00000
     17       9.4832      0.98553
     18      10.5195      0.00000
     19      24.5320      0.00000
     20      24.9042      0.00000
     21      26.2264      0.00000
     22      26.9669      0.00000
     23      27.8208      0.00000
     24      29.2504      0.00000

 k-point     6 :       0.1500    0.1500    0.0500
  band No.  band energies     occupation 
      1     -44.5802      1.00000
      2     -44.5366      1.00000
      3     -44.4915      1.00000
      4     -44.3624      1.00000
      5     -44.2978      1.00000
      6     -44.2744      1.00000
      7       2.1894      1.00000
      8       5.2392      1.00000
      9       5.2979      1.00000
     10       7.0937      1.00000
     11       7.2374      1.00000
     12       7.8700      1.00000
     13       8.4386      1.00000
     14       8.6106      1.00000
     15       8.6246      1.00000
     16       9.1496      1.00691
     17       9.7347      0.03134
     18      17.1955      0.00000
     19      18.2806      0.00000
     20      20.6504      0.00000
     21      26.6280      0.00000
     22      28.5390      0.00000
     23      29.9218      0.00000
     24      31.9694      0.00000

 k-point     7 :       0.2500    0.1500    0.0500
  band No.  band energies     occupation 
      1     -44.5895      1.00000
      2     -44.5111      1.00000
      3     -44.4537      1.00000
      4     -44.4171      1.00000
      5     -44.3208      1.00000
      6     -44.2819      1.00000
      7       2.9157      1.00000
      8       5.4554      1.00000
      9       5.6206      1.00000
     10       6.9882      1.00000
     11       7.1824      1.00000
     12       8.1057      1.00000
     13       8.2001      1.00000
     14       8.2825      1.00000
     15       8.7216      1.00000
     16       8.7244      1.00000
     17       9.6885      0.28908
     18      14.9835      0.00000
     19      19.0117      0.00000
     20      21.7952      0.00000
     21      27.0197      0.00000
     22      27.7475      0.00000
     23      29.9237      0.00000
     24      30.6411      0.00000

 k-point     8 :       0.3500    0.1500    0.0500
  band No.  band energies     occupation 
      1     -44.5854      1.00000
      2     -44.4756      1.00000
      3     -44.4748      1.00000
      4     -44.4130      1.00000
      5     -44.3533      1.00000
      6     -44.3028      1.00000
      7       3.8579      1.00000
      8       5.5954      1.00000
      9       6.0116      1.00000
     10       6.9645      1.00000
     11       7.1189      1.00000
     12       7.6670      1.00000
     13       8.0932      1.00000
     14       8.3376      1.00000
     15       8.5643      1.00000
     16       8.9632      1.00000
     17       9.4968      0.92388
     18      12.6530      0.00000
     19      20.3758      0.00000
     20      23.3117      0.00000
     21      25.6601      0.00000
     22      27.5888      0.00000
     23      28.7789      0.00000
     24      30.9262      0.00000

 k-point     9 :       0.4500    0.1500    0.0500
  band No.  band energies     occupation 
      1     -44.5645      1.00000
      2     -44.5264      1.00000
      3     -44.4346      1.00000
      4     -44.3924      1.00000
      5     -44.3720      1.00000
      6     -44.3341      1.00000
      7       4.7816      1.00000
      8       5.4044      1.00000
      9       6.4367      1.00000
     10       6.8150      1.00000
     11       7.1497      1.00000
     12       7.3556      1.00000
     13       8.0550      1.00000
     14       8.1285      1.00000
     15       8.8893      1.00000
     16       9.2081      1.00000
     17       9.5411      0.77859
     18      10.7642      0.00000
     19      21.9645      0.00000
     20      23.7289      0.00000
     21      25.0470      0.00000
     22      26.8828      0.00000
     23      28.4943      0.00000
     24      29.8471      0.00000

 k-point    10 :       0.2500    0.2500    0.0500
  band No.  band energies     occupation 
      1     -44.6127      1.00000
      2     -44.4904      1.00000
      3     -44.4768      1.00000
      4     -44.4108      1.00000
      5     -44.3386      1.00000
      6     -44.2745      1.00000
      7       3.5386      1.00000
      8       5.5104      1.00000
      9       6.0141      1.00000
     10       6.7714      1.00000
     11       7.1537      1.00000
     12       7.5987      1.00000
     13       8.4263      1.00000
     14       8.4287      1.00000
     15       8.6230      1.00000
     16       8.6649      1.00000
     17       9.8079     -0.03396
     18      14.8626      0.00000
     19      17.4656      0.00000
     20      22.7544      0.00000
     21      25.3831      0.00000
     22      27.3660      0.00000
     23      30.0594      0.00000
     24      32.3849      0.00000

 k-point    11 :       0.3500    0.2500    0.0500
  band No.  band energies     occupation 
      1     -44.6219      1.00000
      2     -44.5349      1.00000
      3     -44.4616      1.00000
      4     -44.3692      1.00000
      5     -44.3639      1.00000
      6     -44.2817      1.00000
      7       4.2634      1.00000
      8       5.4677      1.00000
      9       6.4672      1.00000
     10       6.6640      1.00000
     11       7.1893      1.00000
     12       7.2435      1.00000
     13       8.2727      1.00000
     14       8.4046      1.00000
     15       8.8097      1.00000
     16       9.0698      1.02187
     17       9.7580      0.00394
     18      13.0479      0.00000
     19      18.1032      0.00000
     20      23.1676      0.00000
     21      24.0658      0.00000
     22      27.8478      0.00000
     23      28.7849      0.00000
     24      31.4416      0.00000

 k-point    12 :       0.4500    0.2500    0.0500
  band No.  band energies     occupation 
      1     -44.6122      1.00000
      2     -44.5823      1.00000
      3     -44.4285      1.00000
      4     -44.3948      1.00000
      5     -44.3320      1.00000
      6     -44.3018      1.00000
      7       4.8665      1.00000
      8       5.2596      1.00000
      9       6.6822      1.00000
     10       6.7708      1.00000
     11       7.0121      1.00000
     12       7.2241      1.00000
     13       8.3124      1.00000
     14       8.3953      1.00000
     15       9.1811      1.00000
     16       9.5468      0.95172
     17       9.7286      0.02983
     18      11.1091      0.00000
     19      19.4885      0.00000
     20      21.1928      0.00000
     21      25.5955      0.00000
     22      27.2066      0.00000
     23      28.6467      0.00000
     24      29.8689      0.00000

 k-point    13 :       0.3500    0.3500    0.0500
  band No.  band energies     occupation 
      1     -44.6450      1.00000
      2     -44.5895      1.00000
      3     -44.4423      1.00000
      4     -44.3794      1.00000
      5     -44.3309      1.00000
      6     -44.2746      1.00000
      7       4.6031      1.00000
      8       5.2500      1.00000
      9       6.4672      1.00000
     10       6.7900      1.00000
     11       7.0688      1.00000
     12       7.8003      1.00000
     13       8.3289      1.00000
     14       8.5819      1.00000
     15       8.7313      1.00000
     16       9.5045      0.96285
     17       9.8584     -0.00497
     18      12.6722      0.00000
     19      17.0752      0.00000
     20      20.9323      0.00000
     21      25.1098      0.00000
     22      28.2077      0.00000
     23      28.4079      0.00000
     24      30.7487      0.00000

 k-point    14 :       0.4500    0.3500    0.0500
  band No.  band energies     occupation 
      1     -44.6483      1.00000
      2     -44.6292      1.00000
      3     -44.4205      1.00000
      4     -44.3988      1.00000
      5     -44.3009      1.00000
      6     -44.2815      1.00000
      7       4.8276      1.00000
      8       5.0273      1.00000
      9       6.4159      1.00000
     10       6.5253      1.00000
     11       7.6334      1.00000
     12       8.0155      1.00000
     13       8.4771      1.00000
     14       8.6082      1.00000
     15       9.2343      1.00000
     16       9.7475      0.31696
     17      10.0489      0.00000
     18      11.2871      0.00000
     19      17.6520      0.00000
     20      19.0562      0.00000
     21      26.3159      0.00000
     22      27.4989      0.00000
     23      28.8181      0.00000
     24      29.7269      0.00000

 k-point    15 :       0.4500    0.4500    0.0500
  band No.  band energies     occupation 
      1     -44.6650      1.00000
      2     -44.6584      1.00000
      3     -44.4121      1.00000
      4     -44.4046      1.00000
      5     -44.2814      1.00000
      6     -44.2747      1.00000
      7       4.7954      1.00000
      8       4.8569      1.00000
      9       6.2866      1.00000
     10       6.3241      1.00000
     11       8.3604      1.00000
     12       8.5983      1.00000
     13       8.6194      1.00000
     14       8.7802      1.00000
     15       9.2761      1.00000
     16       9.7024      0.28336
     17      10.4350      0.00000
     18      10.9854      0.00000
     19      16.9428      0.00000
     20      17.5289      0.00000
     21      27.0342      0.00000
     22      27.4878      0.00000
     23      29.0846      0.00000
     24      29.4296      0.00000

 k-point    16 :       0.1500    0.1500    0.1500
  band No.  band energies     occupation 
      1     -44.5645      1.00000
      2     -44.5645      1.00000
      3     -44.4557      1.00000
      4     -44.3999      1.00000
      5     -44.2886      1.00000
      6     -44.2886      1.00000
      7       2.5666      1.00000
      8       5.4264      1.00000
      9       5.4264      1.00000
     10       7.0362      1.00000
     11       7.0362      1.00000
     12       8.0860      1.00000
     13       8.1861      1.00000
     14       8.5281      1.00000
     15       8.5281      1.00000
     16       9.4249      0.99979
     17       9.4249      1.11225
     18      17.8408      0.00000
     19      17.8408      0.00000
     20      19.2368      0.00000
     21      28.7872      0.00000
     22      28.7872      0.00000
     23      29.7384      0.00000
     24      29.7384      0.00000

 k-point    17 :       0.2500    0.1500    0.1500
  band No.  band energies     occupation 
      1     -44.5848      1.00000
      2     -44.5348      1.00000
      3     -44.4512      1.00000
      4     -44.4176      1.00000
      5     -44.3158      1.00000
      6     -44.2881      1.00000
      7       3.2653      1.00000
      8       5.6656      1.00000
      9       5.6997      1.00000
     10       6.9036      1.00000
     11       6.9350      1.00000
     12       7.5732      1.00000
     13       8.3824      1.00000
     14       8.5850      1.00000
     15       8.6827      1.00000
     16       8.9719      1.00000
     17       9.5063      0.95261
     18      15.4698      0.00000
     19      18.9547      0.00000
     20      19.8765      0.00000
     21      27.5254      0.00000
     22      28.5413      0.00000
     23      29.3027      0.00000
     24      30.5090      0.00000

 k-point    18 :       0.3500    0.1500    0.1500
  band No.  band energies     occupation 
      1     -44.5909      1.00000
      2     -44.5042      1.00000
      3     -44.4944      1.00000
      4     -44.3807      1.00000
      5     -44.3538      1.00000
      6     -44.2987      1.00000
      7       4.1485      1.00000
      8       5.8192      1.00000
      9       5.9788      1.00000
     10       6.7953      1.00000
     11       6.9294      1.00000
     12       7.2680      1.00000
     13       8.2261      1.00000
     14       8.5459      1.00000
     15       8.8082      1.00000
     16       9.1279      1.00000
     17       9.4067      0.92704
     18      13.1241      0.00000
     19      20.3544      0.00000
     20      21.0648      0.00000
     21      25.4921      0.00000
     22      26.4575      0.00000
     23      30.1150      0.00000
     24      31.4555      0.00000

 k-point    19 :       0.4500    0.1500    0.1500
  band No.  band energies     occupation 
      1     -44.5793      1.00000
      2     -44.5492      1.00000
      3     -44.4475      1.00000
      4     -44.3991      1.00000
      5     -44.3472      1.00000
      6     -44.3191      1.00000
      7       4.9802      1.00000
      8       5.5621      1.00000
[...]
     19      18.3219      0.00000
     20      20.7967      0.00000
     21      22.3833      0.00000
     22      24.8360      0.00000
     23      26.2501      0.00000
     24      30.1357      0.00000

 k-point    30 :       0.4500    0.3500    0.2500
  band No.  band energies     occupation 
      1     -42.0275      1.00000
      2     -42.0272      1.00000
      3     -41.8760      1.00000
      4     -41.8247      1.00000
      5     -41.7184      1.00000
      6     -41.7141      1.00000
      7       6.7327      1.00000
      8       7.0449      1.00000
      9       7.9675      1.00000
     10       7.9783      1.00000
     11       8.3644      1.00000
     12       8.4911      1.00000
     13      11.1842      0.00000
     14      11.2347      0.00000
     15      11.5150      0.00000
     16      11.5334      0.00000
     17      13.8172      0.00000
     18      14.8896      0.00000
     19      19.1258      0.00000
     20      20.5764      0.00000
     21      21.9125      0.00000
     22      23.4378      0.00000
     23      26.7656      0.00000
     24      28.2360      0.00000

 k-point    31 :       0.4500    0.4500    0.2500
  band No.  band energies     occupation 
      1     -42.0353      1.00000
      2     -42.0346      1.00000
      3     -41.8565      1.00000
      4     -41.8358      1.00000
      5     -41.7248      1.00000
      6     -41.7210      1.00000
      7       6.8528      1.00000
      8       6.9334      1.00000
      9       7.8847      1.00000
     10       7.8996      1.00000
     11       8.6610      1.00000
     12       8.7302      1.00000
     13      11.3009      0.00000
     14      11.3257      0.00000
     15      11.5265      0.00000
     16      11.5391      0.00000
     17      14.4939      0.00000
     18      15.0167      0.00000
     19      18.3894      0.00000
     20      19.0490      0.00000
     21      23.0058      0.00000
     22      24.1211      0.00000
     23      25.2325      0.00000
     24      26.3288      0.00000

 k-point    32 :       0.3500    0.3500    0.3500
  band No.  band energies     occupation 
      1     -42.0115      1.00000
      2     -41.9611      1.00000
      3     -41.9611      1.00000
      4     -41.7725      1.00000
      5     -41.7725      1.00000
      6     -41.7223      1.00000
      7       6.9261      1.00000
      8       7.5003      1.00000
      9       7.9276      1.00000
     10       7.9276      1.00000
     11       8.0741      1.00000
     12       8.0741      1.00000
     13      11.3765      0.00000
     14      11.3765      0.00000
     15      11.4153      0.00000
     16      11.4153      0.00000
     17      13.8655      0.00000
     18      17.4971      0.00000
     19      17.4971      0.00000
     20      19.8861      0.00000
     21      22.8234      0.00000
     22      22.8234      0.00000
     23      24.1454      0.00000
     24      28.0394      0.00000

 k-point    33 :       0.4500    0.3500    0.3500
  band No.  band energies     occupation 
      1     -42.0061      1.00000
      2     -41.9902      1.00000
      3     -41.8984      1.00000
      4     -41.8334      1.00000
      5     -41.7562      1.00000
      6     -41.7374      1.00000
      7       7.2797      1.00000
      8       7.3821      1.00000
      9       7.8722      1.00000
     10       7.9205      1.00000
     11       8.0466      1.00000
     12       8.2169      1.00000
     13      11.3597      0.00000
     14      11.3850      0.00000
     15      11.5028      0.00000
     16      11.5141      0.00000
     17      14.8062      0.00000
     18      16.0276      0.00000
     19      19.1306      0.00000
     20      20.4294      0.00000
     21      20.9113      0.00000
     22      21.6691      0.00000
     23      24.5505      0.00000
     24      26.0864      0.00000

 k-point    34 :       0.4500    0.4500    0.3500
  band No.  band energies     occupation 
      1     -41.9889      1.00000
      2     -41.9777      1.00000
      3     -41.8846      1.00000
      4     -41.8484      1.00000
      5     -41.7788      1.00000
      6     -41.7641      1.00000
      7       7.4283      1.00000
      8       7.4419      1.00000
      9       7.8024      1.00000
     10       7.8453      1.00000
     11       8.1728      1.00000
     12       8.2611      1.00000
     13      11.4437      0.00000
     14      11.4545      0.00000
     15      11.5334      0.00000
     16      11.5376      0.00000
     17      15.8059      0.00000
     18      16.5884      0.00000
     19      18.5406      0.00000
     20      19.5004      0.00000
     21      21.0122      0.00000
     22      22.1182      0.00000
     23      22.9688      0.00000
     24      24.1590      0.00000

 k-point    35 :       0.4500    0.4500    0.4500
  band No.  band energies     occupation 
      1     -41.9440      1.00000
      2     -41.9116      1.00000
      3     -41.9116      1.00000
      4     -41.8430      1.00000
      5     -41.8430      1.00000
      6     -41.8105      1.00000
      7       7.6625      1.00000
      8       7.8091      1.00000
      9       7.8091      1.00000
     10       7.9079      1.00000
     11       7.9532      1.00000
     12       7.9532      1.00000
     13      11.5393      0.00000
     14      11.5393      0.00000
     15      11.5423      0.00000
     16      11.5423      0.00000
     17      17.1203      0.00000
     18      18.3145      0.00000
     19      18.3145      0.00000
     20      20.0015      0.00000
     21      20.1673      0.00000
     22      20.1673      0.00000
     23      21.5175      0.00000
     24      22.3093      0.00000


--------------------------------------------------------------------------------------------------------


 soft charge-density along one line, spin component           1
         0         1         2         3         4         5         6         7         8         9
 total charge-density along one line
 
 soft charge-density along one line, spin component           2
         0         1         2         3         4         5         6         7         8         9
 total charge-density along one line
 
 pseudopotential strength for first ion, spin component:           1
-44.858  -0.000  -0.000   7.570   0.000   0.000  -0.000   0.000
 -0.000 -44.858   0.000   0.000   7.570  -0.000  -0.000   0.000
 -0.000   0.000 -44.858   0.000  -0.000   7.570   0.000  -0.000
  7.570   0.000   0.000   5.638   0.000  -0.000   0.000  -0.000
  0.000   7.570  -0.000   0.000   5.638  -0.000   0.000  -0.000
  0.000  -0.000   7.570  -0.000  -0.000   5.638  -0.000   0.000
 -0.000  -0.000   0.000   0.000   0.000  -0.000  -1.981   0.000
  0.000   0.000  -0.000  -0.000  -0.000   0.000   0.000  -1.981
 -0.000   0.000  -0.000   0.000  -0.000  -0.000   0.000  -0.000
 -0.000  -0.000   0.000   0.000   0.000  -0.000  -0.000   0.000
 -0.000   0.000  -0.000   0.000  -0.000   0.000  -0.000   0.000
 -0.000  -0.000   0.000   0.000   0.000  -0.000  -2.496   0.000
  0.000   0.000  -0.000  -0.000  -0.000   0.000   0.000  -2.496
 -0.000   0.000   0.000   0.000  -0.000  -0.000   0.000  -0.000
 -0.000  -0.000   0.000   0.000   0.000  -0.000  -0.000   0.000
 -0.000   0.000  -0.000   0.000  -0.000   0.000  -0.000   0.000
 -0.000  -0.000   0.000  -0.000  -0.000   0.000   0.000   0.000
 -0.000  -0.000   0.000  -0.000  -0.000   0.000   0.000   0.000
 pseudopotential strength for first ion, spin component:           2
-42.886  -0.000  -0.000   6.737   0.000   0.000  -0.000   0.000
 -0.000 -42.886   0.000   0.000   6.737  -0.000  -0.000   0.000
 -0.000   0.000 -42.886   0.000  -0.000   6.737   0.000  -0.000
  6.737   0.000   0.000   5.866   0.000   0.000   0.000  -0.000
  0.000   6.737  -0.000   0.000   5.866   0.000   0.000  -0.000
  0.000  -0.000   6.737   0.000   0.000   5.866  -0.000   0.000
 -0.000  -0.000   0.000   0.000   0.000  -0.000  -0.455   0.000
  0.000   0.000  -0.000  -0.000  -0.000   0.000   0.000  -0.455
 -0.000   0.000  -0.000   0.000  -0.000  -0.000  -0.000  -0.000
 -0.000  -0.000   0.000   0.000   0.000  -0.000  -0.000  -0.000
 -0.000   0.000  -0.000   0.000  -0.000   0.000  -0.000   0.000
  0.000  -0.000   0.000  -0.000   0.000  -0.000  -0.995   0.000
  0.000   0.000  -0.000  -0.000  -0.000   0.000   0.000  -0.995
 -0.000   0.000  -0.000   0.000  -0.000  -0.000  -0.000  -0.000
 -0.000   0.000   0.000   0.000   0.000  -0.000  -0.000  -0.000
 -0.000   0.000  -0.000   0.000  -0.000   0.000  -0.000   0.000
 -0.000  -0.000   0.000  -0.000  -0.000   0.000   0.000   0.000
 -0.000  -0.000   0.000  -0.000  -0.000   0.000   0.000   0.000
 total augmentation occupancy for first ion, spin component:           1
  1.992   0.000   0.000  -0.027  -0.000   0.000   0.000   0.000   0.000   0.000   0.000   0.000   0.000  -0.000   0.000   0.000
  0.000   1.992   0.000   0.000  -0.027   0.000  -0.000   0.000   0.000   0.000  -0.000  -0.000   0.000   0.000   0.000  -0.000
  0.000   0.000   1.992  -0.000  -0.000  -0.027   0.000   0.000   0.000   0.000   0.000   0.000   0.000  -0.000   0.000   0.000
 -0.027  -0.000  -0.000   0.201   0.000   0.000   0.000   0.000   0.000  -0.000   0.000   0.000   0.000   0.000  -0.000   0.000
  0.000  -0.027   0.000   0.000   0.201  -0.000   0.000   0.000   0.000   0.000  -0.000   0.000   0.000   0.000   0.000   0.000
  0.000  -0.000  -0.027   0.000  -0.000   0.201   0.000  -0.000  -0.000   0.000   0.000   0.000   0.000  -0.000   0.000   0.000
  0.000  -0.000   0.000   0.000   0.000   0.000   2.170   0.000   0.000  -0.000   0.000  -1.222   0.000  -0.000   0.000   0.000
  0.000   0.000   0.000   0.000   0.000  -0.000   0.000   2.170  -0.000   0.000  -0.000   0.000  -1.222  -0.000   0.000  -0.000
  0.000   0.000   0.000   0.000   0.000   0.000   0.000  -0.000   3.410  -0.000  -0.000   0.000   0.000  -2.185   0.000  -0.000
  0.000   0.000   0.000   0.000   0.000   0.000  -0.000   0.000   0.000   2.170   0.000  -0.000   0.000  -0.000  -1.222   0.000
  0.000   0.000  -0.000   0.000   0.000   0.000   0.000  -0.000  -0.000   0.000   3.410  -0.000   0.000   0.000   0.000  -2.185
  0.000  -0.000   0.000   0.000   0.000   0.000  -1.222   0.000  -0.000  -0.000   0.000   1.649  -0.000   0.000   0.000   0.000
  0.000   0.000   0.000   0.000   0.000   0.000   0.000  -1.222   0.000  -0.000   0.000  -0.000   1.649  -0.000  -0.000   0.000
  0.000   0.000   0.000   0.000   0.000   0.000   0.000  -0.000  -2.185  -0.000   0.000   0.000   0.000   2.224  -0.000  -0.000
 -0.000   0.000   0.000   0.000   0.000   0.000   0.000   0.000   0.000  -1.222   0.000   0.000   0.000  -0.000   1.649   0.000
  0.000   0.000   0.000   0.000   0.000   0.000   0.000  -0.000  -0.000   0.000  -2.185   0.000   0.000   0.000   0.000   2.224
 -0.000   0.000   0.000   0.000   0.000   0.000   0.000  -0.000  -0.000   0.000   0.000   0.000   0.000   0.000   0.000   0.000
  0.000   0.000   0.000   0.000  -0.000   0.000   0.000   0.000  -0.000  -0.000   0.000   0.000   0.000   0.000   0.000   0.000
 total augmentation occupancy for first ion, spin component:           2
 -0.002   0.000   0.000  -0.009   0.000   0.000   0.000   0.000   0.000   0.000   0.000   0.000   0.000   0.000   0.000   0.000
  0.000  -0.002   0.000   0.000  -0.009  -0.000  -0.000   0.000   0.000   0.000   0.000   0.000   0.000   0.000   0.000   0.000
  0.000   0.000  -0.002   0.000  -0.000  -0.009   0.000   0.000   0.000   0.000   0.000   0.000  -0.000  -0.000   0.000   0.000
 -0.009  -0.000  -0.000  -0.020   0.000  -0.000   0.000   0.000  -0.000   0.000   0.000   0.000   0.000   0.000   0.000   0.000
  0.000  -0.009   0.000  -0.000  -0.020  -0.000   0.000   0.000   0.000   0.000   0.000   0.000   0.000   0.000   0.000   0.000
 -0.000  -0.000  -0.009  -0.000   0.000  -0.020   0.000   0.000   0.000   0.000   0.000   0.000   0.000   0.000   0.000   0.000
  0.000  -0.000   0.000   0.000  -0.000   0.000   1.761   0.000  -0.000  -0.000   0.000  -0.663  -0.000   0.000  -0.000   0.000
  0.000   0.000  -0.000   0.000   0.000  -0.000  -0.000   1.761  -0.000  -0.000   0.000   0.000  -0.663   0.000  -0.000   0.000
 -0.000   0.000  -0.000  -0.000   0.000  -0.000  -0.000   0.000   2.825   0.000  -0.000  -0.000   0.000  -1.165   0.000   0.000
 -0.000   0.000   0.000  -0.000   0.000   0.000   0.000  -0.000  -0.000   1.761   0.000   0.000   0.000   0.000  -0.663  -0.000
  0.000  -0.000   0.000   0.000   0.000   0.000   0.000   0.000   0.000   0.000   2.825  -0.000   0.000   0.000  -0.000  -1.165
  0.000  -0.000   0.000   0.000   0.000   0.000  -0.663   0.000  -0.000   0.000  -0.000  -0.005  -0.000  -0.000  -0.000  -0.000
  0.000   0.000   0.000   0.000   0.000   0.000  -0.000  -0.663  -0.000   0.000   0.000  -0.000  -0.005  -0.000   0.000  -0.000
  0.000   0.000   0.000   0.000   0.000   0.000  -0.000  -0.000  -1.165  -0.000  -0.000   0.000  -0.000   0.241  -0.000   0.000
 -0.000   0.000   0.000  -0.000   0.000   0.000  -0.000   0.000   0.000  -0.663  -0.000   0.000   0.000   0.000  -0.005  -0.000
 -0.000   0.000   0.000   0.000   0.000   0.000   0.000  -0.000  -0.000   0.000  -1.165   0.000  -0.000   0.000  -0.000   0.241
  0.000  -0.000   0.000   0.000   0.000   0.000   0.000   0.000  -0.000  -0.000  -0.000  -0.000   0.000   0.000   0.000   0.000
  0.000   0.000   0.000   0.000   0.000   0.000  -0.000   0.000   0.000  -0.000  -0.000   0.000   0.000   0.000   0.000   0.000


------------------------ aborting loop because EDIFF is reached ----------------------------------------


 


 total charge     
 
# of ion       s       p       d       tot
------------------------------------------
    1        0.385   6.378   6.074  12.837
    2        0.385   6.378   6.074  12.837
--------------------------------------------------
tot          0.770  12.755  12.149  25.674
 


 magnetization (x)
 
# of ion       s       p       d       tot
------------------------------------------
    1       -0.008  -0.042   2.292   2.242
    2       -0.008  -0.042   2.292   2.242
--------------------------------------------------
tot         -0.016  -0.083   4.583   4.485
 
    CHARGE:  cpu time    0.0135: real time    0.0135
    FORLOC:  cpu time    0.0002: real time    0.0002
    FORNL :  cpu time    0.0737: real time    0.0739
    STRESS:  cpu time    0.2185: real time    0.2191
    FORCOR:  cpu time    0.0055: real time    0.0056
    FORHAR:  cpu time    0.0008: real time    0.0008
    MIXING:  cpu time    0.0005: real time    0.0005
    OFIELD:  cpu time    0.0000: real time    0.0001

  FORCE on cell =-STRESS in cart. coord.  units (eV):
  Direction    XX          YY          ZZ          XY          YZ          ZX
  --------------------------------------------------------------------------------------
  Alpha Z   218.87049   218.87049   218.87049
  Ewald   -1205.52018 -1205.52018 -1205.52018    -0.00000    -0.00000    -0.00000
  Hartree   363.30223   363.30223   363.30223    -0.00000    -0.00000    -0.00000
  E(xc)    -179.77978  -179.77978  -179.77978     0.00000    -0.00000     0.00000
  Local     289.63963   289.63963   289.63963    -0.00000     0.00000    -0.00000
  n-local   -60.14988   -54.14916   -50.53363     2.76233    -1.55577     0.58739
  augment   285.44370   285.44370   285.44370    -0.00000     0.00000    -0.00000
  Kinetic   283.96009   282.53270   281.77027     2.96713    -0.73979    -0.10295
  Fock        0.00000     0.00000     0.00000     0.00000     0.00000     0.00000
  -------------------------------------------------------------------------------------
  Total      -0.23379    -0.23379    -0.23379     0.00000     0.00000    -0.00000
  in kB     -16.35116   -16.35116   -16.35116     0.00000     0.00000    -0.00000
  external pressure =      -16.35 kB  Pullay stress =        0.00 kB


 VOLUME and BASIS-vectors are now :
 -----------------------------------------------------------------------------
  energy-cutoff  :      600.00
  volume of cell :       22.91
      direct lattice vectors                 reciprocal lattice vectors
     2.840052000  0.000000000  0.000000000     0.352106229  0.000000000  0.000000000
     0.000000000  2.840052000  0.000000000     0.000000000  0.352106229  0.000000000
     0.000000000  0.000000000  2.840052000     0.000000000  0.000000000  0.352106229

  length of vectors
     2.840052000  2.840052000  2.840052000     0.352106229  0.352106229  0.352106229


 FORCES acting on ions
    electron-ion (+dipol)            ewald-force                    non-local-force                 convergence-correction
 -----------------------------------------------------------------------------------------------
   0.159E-13 -.325E-13 -.415E-13   -.529E-15 -.103E-14 -.897E-14   0.000E+00 0.000E+00 0.000E+00   -.125E-13 0.148E-13 -.248E-13
   0.842E-12 0.136E-11 -.581E-11   0.472E-14 0.447E-14 0.926E-14   0.129E-25 0.162E-25 0.000E+00   -.503E-13 -.271E-13 -.865E-14
 -----------------------------------------------------------------------------------------------
   0.858E-12 0.132E-11 -.585E-11   0.419E-14 0.343E-14 0.284E-15   0.129E-25 0.162E-25 0.000E+00   -.628E-13 -.122E-13 -.335E-13
 
 
 POSITION                                       TOTAL-FORCE (eV/Angst)
 -----------------------------------------------------------------------------------
      0.00000      0.00000      0.00000         0.000000      0.000000      0.000000
      1.42003      1.42003      1.42003        -0.000000     -0.000000     -0.000000
 -----------------------------------------------------------------------------------
    total drift:                                0.000000      0.000000     -0.000000


--------------------------------------------------------------------------------------------------------



  FREE ENERGIE OF THE ION-ELECTRON SYSTEM (eV)
  ---------------------------------------------------
  free  energy   TOTEN  =       -16.51483864 eV

  energy  without entropy=      -16.51483864  energy(sigma->0) =      -16.51483864
 


--------------------------------------------------------------------------------------------------------


    POTLOK:  cpu time    0.0105: real time    0.0105


--------------------------------------------------------------------------------------------------------


     LOOP+:  cpu time    7.5306: real time    7.5720
    4ORBIT:  cpu time    0.0000: real time    0.0000
 


 total charge     
 
# of ion       s       p       d       tot
------------------------------------------
    1        0.385   6.378   6.074  12.837
    2        0.385   6.378   6.074  12.837
--------------------------------------------------
tot          0.770  12.755  12.149  25.674
 


 magnetization (x)
 
# of ion       s       p       d       tot
------------------------------------------
    1       -0.008  -0.042   2.292   2.242
    2       -0.008  -0.042   2.292   2.242
--------------------------------------------------
tot         -0.016  -0.083   4.583   4.485
 
 BZINTS: Fermi energy:  9.622608; 28.000000 electrons
         Band energy:-399.268312;  BLOECHL correction: -0.034704

 total amount of memory used by VASP MPI-rank0    32549. kBytes
=======================================================================

   base      :      30000. kBytes
   nonlr-proj:        666. kBytes
   fftplans  :        262. kBytes
   grid      :        623. kBytes
   one-center:         31. kBytes
   wavefun   :        967. kBytes
 
  
  
 General timing and accounting informations for this job:
 ========================================================
  
                  Total CPU time used (sec):        8.254
                            User time (sec):        8.110
                          System time (sec):        0.144
                         Elapsed time (sec):        8.322
  
                   Maximum memory used (kb):       54240.
                   Average memory used (kb):           0.
  
                          Minor page faults:        13316
                          Major page faults:            0
                 Voluntary context switches:          206
