unknown system                          
   1.00000000000000     
     1.420026    1.420026    1.420026
     0.000000    2.840052   -2.840052
    -4.260078    1.420026    1.420026
   Fe
     4
Direct
  0.500000  0.000000  0.500000
  0.250000  0.500000  0.750000
  0.000000  0.000000  0.000000
  0.750000  0.500000  0.250000
 
   36   60   72
 0.14968769541E+04 0.33304131009E+04 0.51557965165E+03 0.70175003448E+03 0.90840981071E+03
 0.77485506304E+03 0.54583320665E+03 0.35296635845E+03 0.22100669355E+03 0.13817524044E+03
 0.87960246843E+02 0.57851170499E+02 0.39694809333E+02 0.28676920975E+02 0.21479748362E+02
 0.17667944575E+02 0.15210119190E+02 0.13889197394E+02 0.13469567718E+02 0.13889197394E+02
 0.15210119190E+02 0.17667944575E+02 0.21479748362E+02 0.28676920975E+02 0.39694809333E+02
 0.57851170499E+02 0.87960246843E+02 0.13817524044E+03 0.22100669355E+03 0.35296635845E+03
 0.54583320665E+03 0.77485506304E+03 0.90840981071E+03 0.70175003448E+03 0.51557965165E+03
 0.33304131009E+04 0.34259375129E+04 0.16232924042E+04 0.45225889411E+03 0.76107662557E+03
 0.90567410256E+03 0.75394362936E+03 0.52840472076E+03 0.34206838625E+03 0.21484648975E+03
 0.13481019350E+03 0.86135401691E+02 0.56849129092E+02 0.39131823924E+02 0.28351261900E+02
 0.21307037493E+02 0.17544295155E+02 0.15123799279E+02 0.13819919514E+02 0.13407792242E+02
 0.13819919514E+02 0.15123799279E+02 0.17544295155E+02 0.21307037493E+02 0.28351261900E+02
 0.39131823924E+02 0.56849129092E+02 0.86135401691E+02 0.13481019350E+03 0.21484648975E+03
 0.34206838625E+03 0.52840472076E+03 0.75394362936E+03 0.90567410256E+03 0.76107662557E+03
 0.45225889411E+03 0.16232924042E+04 0.54161667258E+03 0.45361088135E+03 0.61777359753E+03
 0.87456832113E+03 0.87454857733E+03 0.69085205467E+03 0.47931305433E+03 0.31168145133E+03
 0.19761546976E+03 0.12535272463E+03 0.80966836885E+02 0.53994121867E+02 0.37518420741E+02
 0.27409985883E+02 0.20804059991E+02 0.17182261967E+02 0.14872527922E+02 0.13616804036E+02
 0.13227683196E+02 0.13616804036E+02 0.14872527922E+02 0.17182261967E+02 0.20804059991E+02
 0.27409985883E+02 0.37518420741E+02 0.53994121867E+02 0.80966836885E+02 0.12535272463E+03
 0.19761546976E+03 0.31168145133E+03 0.47931305433E+03 0.69085205467E+03 0.87454857733E+03
 0.87456832113E+03 0.61777359753E+03 0.45361088135E+03 0.67690199709E+03 0.74248273197E+03
 0.86960275044E+03 0.90106436684E+03 0.78261039461E+03 0.59085528992E+03 0.40775438114E+03
 0.26792781433E+03 0.17264010407E+03 0.11146456810E+03 0.73278944756E+02 0.49687603009E+02
 0.35060387287E+02 0.25954963737E+02 0.20008855488E+02 0.16612149818E+02 0.14473274943E+02
 0.13295429864E+02 0.12939707501E+02 0.13295429864E+02 0.14473274943E+02 0.16612149818E+02
 0.20008855488E+02 0.25954963737E+02 0.35060387287E+02 0.49687603009E+02 0.73278944756E+02
 0.11146456810E+03 0.17264010407E+03 0.26792781433E+03 0.40775438114E+03 0.59085528992E+03
 0.78261039461E+03 0.90106436684E+03 0.86960275044E+03 0.74248273197E+03 0.90737985549E+03
 0.90794651108E+03 0.88158607497E+03 0.78860300653E+03 0.63712331580E+03 0.47094408020E+03
 0.32686025510E+03 0.21864484767E+03 0.14412247593E+03 0.95313538562E+02 0.64161263543E+02
 0.44481390551E+02 0.32041480228E+02 0.24131366287E+02 0.18974290828E+02 0.15880203121E+02
 0.13952986013E+02 0.12879957579E+02 0.12561330832E+02 0.12879957579E+02 0.13952986013E+02
 0.15880203121E+02 0.18974290828E+02 0.24131366287E+02 0.32041480228E+02 0.44481390551E+02
 0.64161263543E+02 0.95313538562E+02 0.14412247593E+03 0.21864484767E+03 0.32686025510E+03
 0.47094408020E+03 0.63712331580E+03 0.78860300653E+03 0.88158607497E+03 0.90794651108E+03
 0.79625936809E+03 0.77484276260E+03 0.70917192865E+03 0.60357975864E+03 0.47672145302E+03
 0.35293492301E+03 0.24916658292E+03 0.17090877995E+03 0.11592386826E+03 0.78936339302E+02
 0.54688607091E+02 0.38938383852E+02 0.28759247388E+02 0.22110931484E+02 0.17764733976E+02
 0.15044719924E+02 0.13341487082E+02 0.12400129222E+02 0.12111153421E+02 0.12400129222E+02
 0.13341487082E+02 0.15044719924E+02 0.17764733976E+02 0.22110931484E+02 0.28759247388E+02
 0.38938383852E+02 0.54688607091E+02 0.78936339302E+02 0.11592386826E+03 0.17090877995E+03
 0.24916658292E+03 0.35293492301E+03 0.47672145302E+03 0.60357975864E+03 0.70917192865E+03
 0.77484276260E+03 0.57293673551E+03 0.55398584866E+03 0.50054385480E+03 0.42277529341E+03
 0.33543281353E+03 0.25253121628E+03 0.18290818616E+03 0.12936945396E+03 0.90693302877E+02
 0.63855819934E+02 0.45697522846E+02 0.33539802953E+02 0.25464684894E+02 0.19843135794E+02
 0.16466776122E+02 0.14156172417E+02 0.12679148080E+02 0.11879775338E+02 0.11616290218E+02
 0.11879775338E+02 0.12679148080E+02 0.14156172417E+02 0.16466776122E+02 0.19843135794E+02
 0.25464684894E+02 0.33539802953E+02 0.45697522846E+02 0.63855819934E+02 0.90693302877E+02
 0.12936945396E+03 0.18290818616E+03 0.25253121628E+03 0.33543281353E+03 0.42277529341E+03
 0.50054385480E+03 0.55398584866E+03 0.37647328407E+03 0.36425663215E+03 0.33026236714E+03
 0.28162055056E+03 0.22736147214E+03 0.17550557228E+03 0.13107648761E+03 0.95962101115E+02
 0.69736838268E+02 0.50908365193E+02 0.37717425951E+02 0.28617731913E+02 0.22349315742E+02
 0.18006731821E+02 0.15176930259E+02 0.13253263616E+02 0.12010852508E+02 0.11335575131E+02
 0.11109013487E+02 0.11335575131E+02 0.12010852508E+02 0.13253263616E+02 0.15176930259E+02
 0.18006731821E+02 0.22349315742E+02 0.28617731913E+02 0.37717425951E+02 0.50908365193E+02
 0.69736838268E+02 0.95962101115E+02 0.13107648761E+03 0.17550557228E+03 0.22736147214E+03
 0.28162055056E+03 0.33026236714E+03 0.36425663215E+03 0.23853591482E+03 0.23147887014E+03
 0.21181919731E+03 0.18352881853E+03 0.15157906023E+03 0.12041742316E+03 0.92983753935E+02
 0.70578266671E+02 0.53245399337E+02 0.40359899739E+02 0.30996089869E+02 0.24322446065E+02
 0.19392710406E+02 0.16238839618E+02 0.13960697931E+02 0.12378467491E+02 0.11370108886E+02
 0.10795029411E+02 0.10617741743E+02 0.10795029411E+02 0.11370108886E+02 0.12378467491E+02
 0.13960697931E+02 0.16238839618E+02 0.19392710406E+02 0.24322446065E+02 0.30996089869E+02
 0.40359899739E+02 0.53245399337E+02 0.70578266671E+02 0.92983753935E+02 0.12041742316E+03
 0.15157906023E+03 0.18352881853E+03 0.21181919731E+03 0.23147887014E+03 0.15031899371E+03
 0.14640534124E+03 0.13545349268E+03 0.11949042297E+03 0.10112942993E+03 0.82760526712E+02
 0.66104851306E+02 0.52039045359E+02 0.40779724259E+02 0.32072639882E+02 0.25553534986E+02
 0.20397431987E+02 0.17143146789E+02 0.14654566216E+02 0.12843380360E+02 0.11585389856E+02
 0.10762417482E+02 0.10297605447E+02 0.10146854271E+02 0.10297605447E+02 0.10762417482E+02
 0.11585389856E+02 0.12843380360E+02 0.14654566216E+02 0.17143146789E+02 0.20397431987E+02
 0.25553534986E+02 0.32072639882E+02 0.40779724259E+02 0.52039045359E+02 0.66104851306E+02
 0.82760526712E+02 0.10112942993E+03 0.11949042297E+03 0.13545349268E+03 0.14640534124E+03
 0.96081559164E+02 0.93936621293E+02 0.87878050668E+02 0.78938070674E+02 0.68443495523E+02
 0.57686913331E+02 0.47633708169E+02 0.38857579511E+02 0.31572538804E+02 0.25772107594E+02
 0.20855501593E+02 0.17710847322E+02 0.15190545311E+02 0.13275993200E+02 0.11869562157E+02
 0.10879890764E+02 0.10220055501E+02 0.98459019869E+01 0.97221905524E+01 0.98459019869E+01
 0.10220055501E+02 0.10879890764E+02 0.11869562157E+02 0.13275993200E+02 0.15190545311E+02
 0.17710847322E+02 0.20855501593E+02 0.25772107594E+02 0.31572538804E+02 0.38857579511E+02
 0.47633708169E+02 0.57686913331E+02 0.68443495523E+02 0.78938070674E+02 0.87878050668E+02
 0.93936621293E+02 0.63160136289E+02 0.61973980497E+02 0.58606922286E+02 0.53566735980E+02
 0.47534939094E+02 0.41190560363E+02 0.35093228698E+02 0.29613884480E+02 0.24922809559E+02
 0.20676196795E+02 0.17830366590E+02 0.15453943951E+02 0.13571348054E+02 0.12124206940E+02
 0.11050679005E+02 0.10276056253E+02 0.97577598008E+01 0.94571020826E+01 0.93606994455E+01
 0.94571020826E+01 0.97577598008E+01 0.10276056253E+02 0.11050679005E+02 0.12124206940E+02
 0.13571348054E+02 0.15453943951E+02 0.17830366590E+02 0.20676196795E+02 0.24922809559E+02
 0.29613884480E+02 0.35093228698E+02 0.41190560363E+02 0.47534939094E+02 0.53566735980E+02
 0.58606922286E+02 0.61973980497E+02 0.43114214533E+02 0.42446892414E+02 0.40539185137E+02
 0.37648488105E+02 0.34133150503E+02 0.30363744730E+02 0.26644825614E+02 0.23178562372E+02
 0.19882352614E+02 0.17471578450E+02 0.15382228412E+02 0.13656545612E+02 0.12272780356E+02
 0.11199118259E+02 0.10381744622E+02 0.97864271636E+01 0.93797059222E+01 0.91450196872E+01
 0.90669313866E+01 0.91450196872E+01 0.93797059222E+01 0.97864271636E+01 0.10381744622E+02
 0.11199118259E+02 0.12272780356E+02 0.13656545612E+02 0.15382228412E+02 0.17471578450E+02
 0.19882352614E+02 0.23178562372E+02 0.26644825614E+02 0.30363744730E+02 0.34133150503E+02
 0.37648488105E+02 0.40539185137E+02 0.42446892414E+02 0.30767929533E+02 0.30385903524E+02
 0.29288574035E+02 0.27606877456E+02 0.25517073732E+02 0.23213220635E+02 0.20574296585E+02
 0.18591177858E+02 0.16686152397E+02 0.14978936161E+02 0.13504264513E+02 0.12271310021E+02
 0.11273072322E+02 0.10477730012E+02 0.98645630659E+01 0.94089266759E+01 0.90966612262E+01
 0.89131365315E+01 0.88535372358E+01 0.89131365315E+01 0.90966612262E+01 0.94089266759E+01
 0.98645630659E+01 0.10477730012E+02 0.11273072322E+02 0.12271310021E+02 0.13504264513E+02
 0.14978936161E+02 0.16686152397E+02 0.18591177858E+02 0.20574296585E+02 0.23213220635E+02
 0.25517073732E+02 0.27606877456E+02 0.29288574035E+02 0.30385903524E+02 0.23006943331E+02
 0.22780168159E+02 0.22127247360E+02 0.20774226883E+02 0.19659488509E+02 0.18367784304E+02
 0.16978687558E+02 0.15597804406E+02 0.14307335797E+02 0.13133258998E+02 0.12110370263E+02
 0.11245420894E+02 0.10525870203E+02 0.99452711352E+01 0.94884374111E+01 0.91466697524E+01
 0.89085606879E+01 0.87691514058E+01 0.87225705939E+01 0.87691514058E+01 0.89085606879E+01
 0.91466697524E+01 0.94884374111E+01 0.99452711352E+01 0.10525870203E+02 0.11245420894E+02
 0.12110370263E+02 0.13133258998E+02 0.14307335797E+02 0.15597804406E+02 0.16978687558E+02
 0.18367784304E+02 0.19659488509E+02 0.20774226883E+02 0.22127247360E+02 0.22780168159E+02
 0.17989186123E+02 0.17861222566E+02 0.17487111583E+02 0.16896280271E+02 0.16137370736E+02
 0.15274245533E+02 0.14369678229E+02 0.13465789433E+02 0.12598139007E+02 0.11811807644E+02
 0.11114243916E+02 0.10508943464E+02 0.10000164346E+02 0.95806745782E+01 0.92480661060E+01
 0.89949576247E+01 0.88184205970E+01 0.87134301616E+01 0.86791273890E+01 0.87134301616E+01
 0.88184205970E+01 0.89949576247E+01 0.92480661060E+01 0.95806745782E+01 0.10000164346E+02
 0.10508943464E+02 0.11114243916E+02 0.11811807644E+02 0.12598139007E+02 0.13465789433E+02
 0.14369678229E+02 0.15274245533E+02 0.16137370736E+02 0.16896280271E+02 0.17487111583E+02
 0.17861222566E+02 0.14834922184E+02 0.14754764511E+02 0.14521773158E+02 0.14156156000E+02
 0.13686341319E+02 0.13142736185E+02 0.12558324435E+02 0.11972964367E+02 0.11417595744E+02
 0.10896451474E+02 0.10426464629E+02 0.10015537328E+02 0.96620837307E+01 0.93690110595E+01
 0.91323250146E+01 0.89517576830E+01 0.88238114719E+01 0.87481280207E+01 0.87226520663E+01
 0.87481280207E+01 0.88238114719E+01 0.89517576830E+01 0.91323250146E+01 0.93690110595E+01
 0.96620837307E+01 0.10015537328E+02 0.10426464629E+02 0.10896451474E+02 0.11417595744E+02
 0.11972964367E+02 0.12558324435E+02 0.13142736185E+02 0.13686341319E+02 0.14156156000E+02
 0.14521773158E+02 0.14754764511E+02 0.12720685856E+02 0.12672008852E+02 0.12529528968E+02
 0.12304419199E+02 0.12014337292E+02 0.11682678176E+02 0.11331941609E+02 0.10974334328E+02
 0.10619485707E+02 0.10290180405E+02 0.99896599039E+01 0.97208001478E+01 0.94893111788E+01
 0.92930797081E+01 0.91342066323E+01 0.90106182530E+01 0.89232076262E+01 0.88705765451E+01
 0.88533475361E+01 0.88705765451E+01 0.89232076262E+01 0.90106182530E+01 0.91342066323E+01
 0.92930797081E+01 0.94893111788E+01 0.97208001478E+01 0.99896599039E+01 0.10290180405E+02
 0.10619485707E+02 0.10974334328E+02 0.11331941609E+02 0.11682678176E+02 0.12014337292E+02
 0.12304419199E+02 0.12529528968E+02 0.12672008852E+02 0.11292476480E+02 0.11265857038E+02
 0.11188614117E+02 0.11067023505E+02 0.10909787717E+02 0.10724974738E+02 0.10521465961E+02
 0.10314284002E+02 0.10117322283E+02 0.99270607161E+01 0.97516157920E+01 0.95954745561E+01
 0.94570358120E+01 0.93398151713E+01 0.92423029741E+01 0.91664839500E+01 0.91114777517E+01
 0.90785378983E+01 0.90673018526E+01 0.90785378983E+01 0.91114777517E+01 0.91664839500E+01
 0.92423029741E+01 0.93398151713E+01 0.94570358120E+01 0.95954745561E+01 0.97516157920E+01
 0.99270607161E+01 0.10117322283E+02 0.10314284002E+02 0.10521465961E+02 0.10724974738E+02
 0.10909787717E+02 0.11067023505E+02 0.11188614117E+02 0.11265857038E+02 0.10360483800E+02
 0.10348095889E+02 0.10311558166E+02 0.10253781088E+02 0.10179531465E+02 0.10096114617E+02
 0.10010949220E+02 0.99247263318E+01 0.98354480450E+01 0.97543260943E+01 0.96795627348E+01
 0.96100282527E+01 0.95489926815E+01 0.94942881090E+01 0.94483695628E+01 0.94104726784E+01
 0.93828534987E+01 0.93656824069E+01 0.93600163848E+01 0.93656824069E+01 0.93828534987E+01
 0.94104726784E+01 0.94483695628E+01 0.94942881090E+01 0.95489926815E+01 0.96100282527E+01
 0.96795627348E+01 0.97543260943E+01 0.98354480450E+01 0.99247263318E+01 0.10010949220E+02
 0.10096114617E+02 0.10179531465E+02 0.10253781088E+02 0.10311558166E+02 0.10348095889E+02
 0.97409378552E+01 0.97396847583E+01 0.97366995895E+01 0.97331630292E+01 0.97300553082E+01
 0.97273808366E+01 0.97238722795E+01 0.97226118180E+01 0.97288458589E+01 0.97335687655E+01
 0.97380931460E+01 0.97427581983E+01 0.97437050593E+01 0.97428173416E+01 0.97386670534E+01
 0.97339308251E+01 0.97285442707E+01 0.97246382721E+01 0.97232047034E+01 0.97246382721E+01
 0.97285442707E+01 0.97339308251E+01 0.97386670534E+01 0.97428173416E+01 0.97437050593E+01
 0.97427581983E+01 0.97380931460E+01 0.97335687655E+01 0.97288458589E+01 0.97226118180E+01
 0.97238722795E+01 0.97273808366E+01 0.97300553082E+01 0.97331630292E+01 0.97366995895E+01
 0.97396847583E+01 0.93647985425E+01 0.93716273222E+01 0.93918583298E+01 0.94247196780E+01
 0.94705694838E+01 0.95287140891E+01 0.95988372140E+01 0.96769953755E+01 0.97541113086E+01
 0.98332207998E+01 0.99076678147E+01 0.99723051524E+01 0.10027532749E+02 0.10070316329E+02
 0.10102386132E+02 0.10123320798E+02 0.10137001996E+02 0.10144312275E+02 0.10146335039E+02
 0.10144312275E+02 0.10137001996E+02 0.10123320798E+02 0.10102386132E+02 0.10070316329E+02
 0.10027532749E+02 0.99723051524E+01 0.99076678147E+01 0.98332207998E+01 0.97541113086E+01
 0.96769953755E+01 0.95988372140E+01 0.95287140891E+01 0.94705694838E+01 0.94247196780E+01
 0.93918583298E+01 0.93716273222E+01 0.91384686044E+01 0.91527690620E+01 0.91947008456E+01
 0.92644146836E+01 0.93575838776E+01 0.94700959968E+01 0.95982190184E+01 0.97360559820E+01
 0.98816038110E+01 0.10021912246E+02 0.10153912101E+02 0.10274111686E+02 0.10375716941E+02
 0.10458314057E+02 0.10520907411E+02 0.10566282558E+02 0.10594343938E+02 0.10610137539E+02
 0.10615743128E+02 0.10610137539E+02 0.10594343938E+02 0.10566282558E+02 0.10520907411E+02
 0.10458314057E+02 0.10375716941E+02 0.10274111686E+02 0.10153912101E+02 0.10021912246E+02
 0.98816038110E+01 0.97360559820E+01 0.95982190184E+01 0.94700959968E+01 0.93575838776E+01
 0.92644146836E+01 0.91947008456E+01 0.91527690620E+01 0.90382938821E+01 0.90577261236E+01
 0.91168217372E+01 0.92113011161E+01 0.93390380766E+01 0.94995299034E+01 0.96824679837E+01
 0.98785908799E+01 0.10077001753E+02 0.10275840119E+02 0.10463177848E+02 0.10629443732E+02
 0.10772437919E+02 0.10887753201E+02 0.10975977780E+02 0.11039396183E+02 0.11083011836E+02
 0.11105808484E+02 0.11112615734E+02 0.11105808484E+02 0.11083011836E+02 0.11039396183E+02
 0.10975977780E+02 0.10887753201E+02 0.10772437919E+02 0.10629443732E+02 0.10463177848E+02
 0.10275840119E+02 0.10077001753E+02 0.98785908799E+01 0.96824679837E+01 0.94995299034E+01
 0.93390380766E+01 0.92113011161E+01 0.91168217372E+01 0.90577261236E+01 0.90042567589E+01
 0.90294691353E+01 0.91049272450E+01 0.92272931543E+01 0.93960421969E+01 0.95966083875E+01
 0.98207773083E+01 0.10065677037E+02 0.10323560407E+02 0.10574256491E+02 0.10807949314E+02
 0.11017981692E+02 0.11195348967E+02 0.11339824854E+02 0.11449852640E+02 0.11527389467E+02
 0.11578262164E+02 0.11609460946E+02 0.11618225084E+02 0.11609460946E+02 0.11578262164E+02
 0.11527389467E+02 0.11449852640E+02 0.11339824854E+02 0.11195348967E+02 0.11017981692E+02
 0.10807949314E+02 0.10574256491E+02 0.10323560407E+02 0.10065677037E+02 0.98207773083E+01
 0.95966083875E+01 0.93960421969E+01 0.92272931543E+01 0.91049272450E+01 0.90294691353E+01
 0.90294539835E+01 0.90606578292E+01 0.91474054581E+01 0.92920411444E+01 0.94845217588E+01
 0.97178552605E+01 0.99906208315E+01 0.10287101688E+02 0.10586321150E+02 0.10880586911E+02
 0.11156983044E+02 0.11402993894E+02 0.11613738950E+02 0.11782920860E+02 0.11913056248E+02
 0.12005283352E+02 0.12062947160E+02 0.12095090056E+02 0.12108418803E+02 0.12095090056E+02
 0.12062947160E+02 0.12005283352E+02 0.11913056248E+02 0.11782920860E+02 0.11613738950E+02
 0.11402993894E+02 0.11156983044E+02 0.10880586911E+02 0.10586321150E+02 0.10287101688E+02
 0.99906208315E+01 0.97178552605E+01 0.94845217588E+01 0.92920411444E+01 0.91474054581E+01
 0.90606578292E+01 0.90724903411E+01 0.91065740093E+01 0.92071095167E+01 0.93730552356E+01
 0.95930723266E+01 0.98621523880E+01 0.10170713538E+02 0.10501237025E+02 0.10842520156E+02
 0.11174067129E+02 0.11485064281E+02 0.11764909084E+02 0.12002100156E+02 0.12193233266E+02
 0.12338159342E+02 0.12442520818E+02 0.12508494017E+02 0.12542751658E+02 0.12554044221E+02
 0.12542751658E+02 0.12508494017E+02 0.12442520818E+02 0.12338159342E+02 0.12193233266E+02
 0.12002100156E+02 0.11764909084E+02 0.11485064281E+02 0.11174067129E+02 0.10842520156E+02
 0.10501237025E+02 0.10170713538E+02 0.98621523880E+01 0.95930723266E+01 0.93730552356E+01
 0.92071095167E+01 0.91065740093E+01 0.91341182977E+01 0.91696976793E+01 0.92803348111E+01
 0.94584483618E+01 0.96954112228E+01 0.99921185342E+01 0.10333798776E+02 0.10698443704E+02
 0.11066851391E+02 0.11431038818E+02 0.11773907600E+02 0.12079048445E+02 0.12338978163E+02
 0.12546137882E+02 0.12702559465E+02 0.12814086470E+02 0.12887460865E+02 0.12924352003E+02
 0.12934020910E+02 0.12924352003E+02 0.12887460865E+02 0.12814086470E+02 0.12702559465E+02
 0.12546137882E+02 0.12338978163E+02 0.12079048445E+02 0.11773907600E+02 0.11431038818E+02
 0.11066851391E+02 0.10698443704E+02 0.10333798776E+02 0.99921185342E+01 0.96954112228E+01
 0.94584483618E+01 0.92803348111E+01 0.91696976793E+01 0.91797844287E+01 0.92169651606E+01
 0.93366547170E+01 0.95271283460E+01 0.97852306341E+01 0.10105217287E+02 0.10464561320E+02
 0.10847736438E+02 0.11245063212E+02 0.11634608772E+02 0.11999202340E+02 0.12325660292E+02
 0.12600150356E+02 0.12819821056E+02 0.12983278299E+02 0.13099026762E+02 0.13175918559E+02
 0.13216432264E+02 0.13225289449E+02 0.13216432264E+02 0.13175918559E+02 0.13099026762E+02
 0.12983278299E+02 0.12819821056E+02 0.12600150356E+02 0.12325660292E+02 0.11999202340E+02
 0.11634608772E+02 0.11245063212E+02 0.10847736438E+02 0.10464561320E+02 0.10105217287E+02
 0.97852306341E+01 0.95271283460E+01 0.93366547170E+01 0.92169651606E+01 0.92186490602E+01
 0.92574161181E+01 0.93806099684E+01 0.95758086920E+01 0.98409467577E+01 0.10171831548E+02
 0.10546856686E+02 0.10948557852E+02 0.11357598876E+02 0.11763371393E+02 0.12143891667E+02
 0.12481224406E+02 0.12766261652E+02 0.12992458119E+02 0.13160880670E+02 0.13278508476E+02
 0.13357203268E+02 0.13398971123E+02 0.13409147304E+02 0.13398971123E+02 0.13357203268E+02
 0.13278508476E+02 0.13160880670E+02 0.12992458119E+02 0.12766261652E+02 0.12481224406E+02
 0.12143891667E+02 0.11763371393E+02 0.11357598876E+02 0.10948557852E+02 0.10546856686E+02
 0.10171831548E+02 0.98409467577E+01 0.95758086920E+01 0.93806099684E+01 0.92574161181E+01
 0.92259333345E+01 0.92652540864E+01 0.93909577448E+01 0.95903735726E+01 0.98632681411E+01
 0.10200182223E+02 0.10576355011E+02 0.10978916311E+02 0.11397621921E+02 0.11808815868E+02
 0.12192796881E+02 0.12535656216E+02 0.12822840259E+02 0.13052045042E+02 0.13221492529E+02
 0.13339976216E+02 0.13418708779E+02 0.13461592215E+02 0.13471607636E+02 0.13461592215E+02
 0.13418708779E+02 0.13339976216E+02 0.13221492529E+02 0.13052045042E+02 0.12822840259E+02
 0.12535656216E+02 0.12192796881E+02 0.11808815868E+02 0.11397621921E+02 0.10978916311E+02
 0.10576355011E+02 0.10200182223E+02 0.98632681411E+01 0.95903735726E+01 0.93909577448E+01
 0.92652540864E+01 0.92186490602E+01 0.92574161181E+01 0.93806099684E+01 0.95758086920E+01
 0.98409467577E+01 0.10171831548E+02 0.10546856686E+02 0.10948557852E+02 0.11357598876E+02
 0.11763371393E+02 0.12143891667E+02 0.12481224406E+02 0.12766261652E+02 0.12992458119E+02
 0.13160880670E+02 0.13278508476E+02 0.13357203268E+02 0.13398971123E+02 0.13409147304E+02
 0.13398971123E+02 0.13357203268E+02 0.13278508476E+02 0.13160880670E+02 0.12992458119E+02
 0.12766261652E+02 0.12481224406E+02 0.12143891667E+02 0.11763371393E+02 0.11357598876E+02
 0.10948557852E+02 0.10546856686E+02 0.10171831548E+02 0.98409467577E+01 0.95758086920E+01
 0.93806099684E+01 0.92574161181E+01 0.91797844287E+01 0.92169651606E+01 0.93366547170E+01
 0.95271283460E+01 0.97852306341E+01 0.10105217287E+02 0.10464561320E+02 0.10847736438E+02
 0.11245063212E+02 0.11634608772E+02 0.11999202340E+02 0.12325660292E+02 0.12600150356E+02
 0.12819821056E+02 0.12983278299E+02 0.13099026762E+02 0.13175918559E+02 0.13216432264E+02
 0.13225289449E+02 0.13216432264E+02 0.13175918559E+02 0.13099026762E+02 0.12983278299E+02
 0.12819821056E+02 0.12600150356E+02 0.12325660292E+02 0.11999202340E+02 0.11634608772E+02
 0.11245063212E+02 0.10847736438E+02 0.10464561320E+02 0.10105217287E+02 0.97852306341E+01
 0.95271283460E+01 0.93366547170E+01 0.92169651606E+01 0.91341182977E+01 0.91696976793E+01
 0.92803348111E+01 0.94584483618E+01 0.96954112228E+01 0.99921185342E+01 0.10333798776E+02
 0.10698443704E+02 0.11066851391E+02 0.11431038818E+02 0.11773907600E+02 0.12079048445E+02
 0.12338978163E+02 0.12546137882E+02 0.12702559465E+02 0.12814086470E+02 0.12887460865E+02
 0.12924352003E+02 0.12934020910E+02 0.12924352003E+02 0.12887460865E+02 0.12814086470E+02
 0.12702559465E+02 0.12546137882E+02 0.12338978163E+02 0.12079048445E+02 0.11773907600E+02
 0.11431038818E+02 0.11066851391E+02 0.10698443704E+02 0.10333798776E+02 0.99921185342E+01
 0.96954112228E+01 0.94584483618E+01 0.92803348111E+01 0.91696976793E+01 0.90724903411E+01
 0.91065740093E+01 0.92071095167E+01 0.93730552356E+01 0.95930723266E+01 0.98621523880E+01
 0.10170713538E+02 0.10501237025E+02 0.10842520156E+02 0.11174067129E+02 0.11485064281E+02
 0.11764909084E+02 0.12002100156E+02 0.12193233266E+02 0.12338159342E+02 0.12442520818E+02
 0.12508494017E+02 0.12542751658E+02 0.12554044221E+02 0.12542751658E+02 0.12508494017E+02
 0.12442520818E+02 0.12338159342E+02 0.12193233266E+02 0.12002100156E+02 0.11764909084E+02
 0.11485064281E+02 0.11174067129E+02 0.10842520156E+02 0.10501237025E+02 0.10170713538E+02
 0.98621523880E+01 0.95930723266E+01 0.93730552356E+01 0.92071095167E+01 0.91065740093E+01
 0.90294539835E+01 0.90606578292E+01 0.91474054581E+01 0.92920411444E+01 0.94845217588E+01
 0.97178552605E+01 0.99906208315E+01 0.10287101688E+02 0.10586321150E+02 0.10880586911E+02
 0.11156983044E+02 0.11402993894E+02 0.11613738950E+02 0.11782920860E+02 0.11913056248E+02
 0.12005283352E+02 0.12062947160E+02 0.12095090056E+02 0.12108418803E+02 0.12095090056E+02
 0.12062947160E+02 0.12005283352E+02 0.11913056248E+02 0.11782920860E+02 0.11613738950E+02
 0.11402993894E+02 0.11156983044E+02 0.10880586911E+02 0.10586321150E+02 0.10287101688E+02
 0.99906208315E+01 0.97178552605E+01 0.94845217588E+01 0.92920411444E+01 0.91474054581E+01
 0.90606578292E+01 0.90042567589E+01 0.90294691353E+01 0.91049272450E+01 0.92272931543E+01
 0.93960421969E+01 0.95966083875E+01 0.98207773083E+01 0.10065677037E+02 0.10323560407E+02
 0.10574256491E+02 0.10807949314E+02 0.11017981692E+02 0.11195348967E+02 0.11339824854E+02
 0.11449852640E+02 0.11527389467E+02 0.11578262164E+02 0.11609460946E+02 0.11618225084E+02
 0.11609460946E+02 0.11578262164E+02 0.11527389467E+02 0.11449852640E+02 0.11339824854E+02
 0.11195348967E+02 0.11017981692E+02 0.10807949314E+02 0.10574256491E+02 0.10323560407E+02
 0.10065677037E+02 0.98207773083E+01 0.95966083875E+01 0.93960421969E+01 0.92272931543E+01
 0.91049272450E+01 0.90294691353E+01 0.90382938821E+01 0.90577261236E+01 0.91168217372E+01
 0.92113011161E+01 0.93390380766E+01 0.94995299034E+01 0.96824679837E+01 0.98785908799E+01
 0.10077001753E+02 0.10275840119E+02 0.10463177848E+02 0.10629443732E+02 0.10772437919E+02
 0.10887753201E+02 0.10975977780E+02 0.11039396183E+02 0.11083011836E+02 0.11105808484E+02
 0.11112615734E+02 0.11105808484E+02 0.11083011836E+02 0.11039396183E+02 0.10975977780E+02
 0.10887753201E+02 0.10772437919E+02 0.10629443732E+02 0.10463177848E+02 0.10275840119E+02
 0.10077001753E+02 0.98785908799E+01 0.96824679837E+01 0.94995299034E+01 0.93390380766E+01
 0.92113011161E+01 0.91168217372E+01 0.90577261236E+01 0.91384686044E+01 0.91527690620E+01
 0.91947008456E+01 0.92644146836E+01 0.93575838776E+01 0.94700959968E+01 0.95982190184E+01
 0.97360559820E+01 0.98816038110E+01 0.10021912246E+02 0.10153912101E+02 0.10274111686E+02
 0.10375716941E+02 0.10458314057E+02 0.10520907411E+02 0.10566282558E+02 0.10594343938E+02
 0.10610137539E+02 0.10615743128E+02 0.10610137539E+02 0.10594343938E+02 0.10566282558E+02
 0.10520907411E+02 0.10458314057E+02 0.10375716941E+02 0.10274111686E+02 0.10153912101E+02
 0.10021912246E+02 0.98816038110E+01 0.97360559820E+01 0.95982190184E+01 0.94700959968E+01
 0.93575838776E+01 0.92644146836E+01 0.91947008456E+01 0.91527690620E+01 0.93647985425E+01
 0.93716273222E+01 0.93918583298E+01 0.94247196780E+01 0.94705694838E+01 0.95287140891E+01
 0.95988372140E+01 0.96769953755E+01 0.97541113086E+01 0.98332207998E+01 0.99076678147E+01
 0.99723051524E+01 0.10027532749E+02 0.10070316329E+02 0.10102386132E+02 0.10123320798E+02
 0.10137001996E+02 0.10144312275E+02 0.10146335039E+02 0.10144312275E+02 0.10137001996E+02
 0.10123320798E+02 0.10102386132E+02 0.10070316329E+02 0.10027532749E+02 0.99723051524E+01
 0.99076678147E+01 0.98332207998E+01 0.97541113086E+01 0.96769953755E+01 0.95988372140E+01
 0.95287140891E+01 0.94705694838E+01 0.94247196780E+01 0.93918583298E+01 0.93716273222E+01
 0.97409378552E+01 0.97396847583E+01 0.97366995895E+01 0.97331630292E+01 0.97300553082E+01
 0.97273808366E+01 0.97238722795E+01 0.97226118180E+01 0.97288458589E+01 0.97335687655E+01
 0.97380931460E+01 0.97427581983E+01 0.97437050593E+01 0.97428173416E+01 0.97386670534E+01
 0.97339308251E+01 0.97285442707E+01 0.97246382721E+01 0.97232047034E+01 0.97246382721E+01
 0.97285442707E+01 0.97339308251E+01 0.97386670534E+01 0.97428173416E+01 0.97437050593E+01
 0.97427581983E+01 0.97380931460E+01 0.97335687655E+01 0.97288458589E+01 0.97226118180E+01
 0.97238722795E+01 0.97273808366E+01 0.97300553082E+01 0.97331630292E+01 0.97366995895E+01
 0.97396847583E+01 0.10360483800E+02 0.10348095889E+02 0.10311558166E+02 0.10253781088E+02
 0.10179531465E+02 0.10096114617E+02 0.10010949220E+02 0.99247263318E+01 0.98354480450E+01
 0.97543260943E+01 0.96795627348E+01 0.96100282527E+01 0.95489926815E+01 0.94942881090E+01
 0.94483695628E+01 0.94104726784E+01 0.93828534987E+01 0.93656824069E+01 0.93600163848E+01
 0.93656824069E+01 0.93828534987E+01 0.94104726784E+01 0.94483695628E+01 0.94942881090E+01
 0.95489926815E+01 0.96100282527E+01 0.96795627348E+01 0.97543260943E+01 0.98354480450E+01
 0.99247263318E+01 0.10010949220E+02 0.10096114617E+02 0.10179531465E+02 0.10253781088E+02
 0.10311558166E+02 0.10348095889E+02 0.11292476480E+02 0.11265857038E+02 0.11188614117E+02
 0.11067023505E+02 0.10909787717E+02 0.10724974738E+02 0.10521465961E+02 0.10314284002E+02
 0.10117322283E+02 0.99270607161E+01 0.97516157920E+01 0.95954745561E+01 0.94570358120E+01
 0.93398151713E+01 0.92423029741E+01 0.91664839500E+01 0.91114777517E+01 0.90785378983E+01
 0.90673018526E+01 0.90785378983E+01 0.91114777517E+01 0.91664839500E+01 0.92423029741E+01
 0.93398151713E+01 0.94570358120E+01 0.95954745561E+01 0.97516157920E+01 0.99270607161E+01
 0.10117322283E+02 0.10314284002E+02 0.10521465961E+02 0.10724974738E+02 0.10909787717E+02
 0.11067023505E+02 0.11188614117E+02 0.11265857038E+02 0.12720685856E+02 0.12672008852E+02
 0.12529528968E+02 0.12304419199E+02 0.12014337292E+02 0.11682678176E+02 0.11331941609E+02
 0.10974334328E+02 0.10619485707E+02 0.10290180405E+02 0.99896599039E+01 0.97208001478E+01
 0.94893111788E+01 0.92930797081E+01 0.91342066323E+01 0.90106182530E+01 0.89232076262E+01
 0.88705765451E+01 0.88533475361E+01 0.88705765451E+01 0.89232076262E+01 0.90106182530E+01
 0.91342066323E+01 0.92930797081E+01 0.94893111788E+01 0.97208001478E+01 0.99896599039E+01
 0.10290180405E+02 0.10619485707E+02 0.10974334328E+02 0.11331941609E+02 0.11682678176E+02
 0.12014337292E+02 0.12304419199E+02 0.12529528968E+02 0.12672008852E+02 0.14834922184E+02
 0.14754764511E+02 0.14521773158E+02 0.14156156000E+02 0.13686341319E+02 0.13142736185E+02
 0.12558324435E+02 0.11972964367E+02 0.11417595744E+02 0.10896451474E+02 0.10426464629E+02
 0.10015537328E+02 0.96620837307E+01 0.93690110595E+01 0.91323250146E+01 0.89517576830E+01
 0.88238114719E+01 0.87481280207E+01 0.87226520663E+01 0.87481280207E+01 0.88238114719E+01
 0.89517576830E+01 0.91323250146E+01 0.93690110595E+01 0.96620837307E+01 0.10015537328E+02
 0.10426464629E+02 0.10896451474E+02 0.11417595744E+02 0.11972964367E+02 0.12558324435E+02
 0.13142736185E+02 0.13686341319E+02 0.14156156000E+02 0.14521773158E+02 0.14754764511E+02
 0.17989186123E+02 0.17861222566E+02 0.17487111583E+02 0.16896280271E+02 0.16137370736E+02