=========================================
SLURM_JOB_ID = 43763077
SLURM_JOB_NODELIST = lnode50
SLURM_GPUS = 
SLURM_CPUS_ON_NODE = 8
SLURM_JOB_PARTITION = lenovo
SLURM_TASK_PID = 2617207
CUDA_VISIBLE_DEVICES = 
==========================================
 running on    8 total cores
 distrk:  each k-point on    8 cores,    1 groups
 distr:  one band on    4 cores,    2 groups
 using from now: INCAR     
 vasp.5.4.4.18Apr17-6-g9f103f2a35 (build Apr 28 2018 00:24:27) complex          
  
 POSCAR found type information on POSCAR  Fe
 POSCAR found :  1 types and       4 ions
 scaLAPACK will be used

 ----------------------------------------------------------------------------- 
|                                                                             |
|  ADVICE TO THIS USER RUNNING 'VASP/VAMP'   (HEAR YOUR MASTER'S VOICE ...):  |
|                                                                             |
|      You have a (more or less) 'small supercell' and for smaller cells      |
|      it is recommended  to use the reciprocal-space projection scheme!      |
|      The real space optimization is not  efficient for small cells and it   |
|      is also less accurate ...                                              |
|      Therefore set LREAL=.FALSE. in the  INCAR file                         |
|                                                                             |
 ----------------------------------------------------------------------------- 

 LDA part: xc-table for Pade appr. of Perdew
 POSCAR, INCAR and KPOINTS ok, starting setup
 FFT: planning ...
 WAVECAR not read
 entering main loop
       N       E                     dE             d eps       ncg     rms          rms(c)
DAV:   1     0.745811061842E+03    0.74581E+03   -0.32983E+04 58892   0.265E+03
DAV:   2     0.456104929556E+02   -0.70020E+03   -0.68716E+03 56308   0.705E+02
DAV:   3    -0.137915477054E+02   -0.59402E+02   -0.58051E+02 61506   0.214E+02
DAV:   4    -0.156104304536E+02   -0.18189E+01   -0.17999E+01 63638   0.384E+01
DAV:   5    -0.156526714837E+02   -0.42241E-01   -0.42195E-01 69494   0.593E+00    0.316E+01
DAV:   6    -0.141421682077E+02    0.15105E+01   -0.30322E+01 58012   0.546E+01    0.151E+01
DAV:   7    -0.155034581453E+02   -0.13613E+01   -0.33576E+00 65632   0.158E+01    0.793E+00
DAV:   8    -0.157566453291E+02   -0.25319E+00   -0.57568E-01 66522   0.561E+00    0.283E+00
DAV:   9    -0.159459527755E+02   -0.18931E+00   -0.68722E-01 73174   0.378E+00    0.123E+00
DAV:  10    -0.160691491473E+02   -0.12320E+00   -0.37157E-01 66474   0.250E+00    0.108E+00
DAV:  11    -0.161392443960E+02   -0.70095E-01   -0.18824E-01 70012   0.163E+00    0.909E-01
DAV:  12    -0.162163095707E+02   -0.77065E-01   -0.37360E-01 69840   0.272E+00    0.696E-01
DAV:  13    -0.162910522870E+02   -0.74743E-01   -0.88738E-01 68840   0.451E+00    0.542E-01
DAV:  14    -0.163058442971E+02   -0.14792E-01   -0.53052E-02 58518   0.174E+00    0.409E-01
DAV:  15    -0.163179731062E+02   -0.12129E-01   -0.46186E-02 81996   0.114E+00    0.363E-01
DAV:  16    -0.163361039687E+02   -0.18131E-01   -0.12382E-01 79734   0.189E+00    0.329E-01
DAV:  17    -0.163496818595E+02   -0.13578E-01   -0.82535E-02 67940   0.151E+00    0.280E-01
DAV:  18    -0.163485553094E+02    0.11266E-02   -0.82485E-02 69756   0.183E+00    0.347E-01
DAV:  19    -0.163615886109E+02   -0.13033E-01   -0.54024E-02 72968   0.116E+00    0.299E-01
DAV:  20    -0.163791780416E+02   -0.17589E-01   -0.17978E-01 76054   0.177E+00    0.219E-01
DAV:  21    -0.163854384918E+02   -0.62605E-02   -0.28553E-02 65178   0.709E-01    0.168E-01
DAV:  22    -0.163895828095E+02   -0.41443E-02   -0.19652E-02 71780   0.550E-01    0.170E-01
DAV:  23    -0.163986550383E+02   -0.90722E-02   -0.19722E-01 75944   0.172E+00    0.208E-01
DAV:  24    -0.164039164845E+02   -0.52614E-02   -0.13426E-01 74076   0.149E+00    0.195E-01
DAV:  25    -0.164051155278E+02   -0.11990E-02   -0.18810E-02 64216   0.705E-01    0.150E-01
DAV:  26    -0.164053868435E+02   -0.27132E-03   -0.12357E-02 73338   0.582E-01    0.694E-02
DAV:  27    -0.164067390022E+02   -0.13522E-02   -0.28053E-02 78136   0.773E-01    0.589E-02
DAV:  28    -0.164073024633E+02   -0.56346E-03   -0.14152E-02 81920   0.606E-01    0.483E-02
DAV:  29    -0.164075201701E+02   -0.21771E-03   -0.12284E-03 60488   0.213E-01    0.410E-02
DAV:  30    -0.164077084738E+02   -0.18830E-03   -0.24627E-03 75122   0.197E-01    0.270E-02
DAV:  31    -0.164078182420E+02   -0.10977E-03   -0.31940E-03 76376   0.219E-01    0.197E-02
DAV:  32    -0.164078426221E+02   -0.24380E-04   -0.85913E-05 51694   0.696E-02    0.128E-02
DAV:  33    -0.164078953524E+02   -0.52730E-04   -0.12317E-03 77052   0.155E-01    0.113E-02
DAV:  34    -0.164078974698E+02   -0.21174E-05   -0.12877E-04 61714   0.658E-02    0.480E-03
DAV:  35    -0.164079066450E+02   -0.91752E-05   -0.22108E-05 52464   0.226E-02    0.639E-03
DAV:  36    -0.164079074877E+02   -0.84275E-06   -0.92727E-06 49254   0.191E-02
   1 F= -.16407907E+02 E0= -.16407907E+02  d E =0.000000E+00  mag=    -0.0000
