       N       E                     dE             d eps       ncg     rms          rms(c)
DAV:   1     0.529281027040E+04    0.52928E+04   -0.18098E+05 10080   0.187E+03
DAV:   2     0.404775973659E+03   -0.48880E+04   -0.46214E+04  8816   0.639E+02
DAV:   3    -0.181498245136E+03   -0.58627E+03   -0.54314E+03  9448   0.235E+02
DAV:   4    -0.214030257992E+03   -0.32532E+02   -0.31594E+02  9880   0.510E+01
DAV:   5    -0.214754452808E+03   -0.72419E+00   -0.71892E+00  9608   0.850E+00    0.608E+01
DAV:   6    -0.195544999784E+03    0.19209E+02   -0.25832E+02 11336   0.779E+01    0.694E+01
DAV:   7    -0.180143467523E+03    0.15402E+02   -0.57793E+01 10632   0.509E+01    0.290E+01
DAV:   8    -0.180467512089E+03   -0.32404E+00   -0.10050E+01  9568   0.712E+00    0.143E+01
DAV:   9    -0.180412409038E+03    0.55103E-01   -0.21025E-01 10368   0.211E+00    0.251E+00
DAV:  10    -0.180409699426E+03    0.27096E-02   -0.10783E-01  9688   0.143E+00    0.118E+00
DAV:  11    -0.180410802344E+03   -0.11029E-02   -0.75213E-03 11368   0.369E-01    0.830E-01
DAV:  12    -0.180413513446E+03   -0.27111E-02   -0.83070E-03 11472   0.430E-01    0.358E-01
DAV:  13    -0.180416491703E+03   -0.29783E-02   -0.14898E-03 10584   0.122E-01    0.213E-01
DAV:  14    -0.180417488501E+03   -0.99680E-03   -0.67689E-04 10568   0.111E-01    0.805E-02
DAV:  15    -0.180417624313E+03   -0.13581E-03   -0.16682E-04 10544   0.446E-02    0.452E-02
DAV:  16    -0.180417656220E+03   -0.31907E-04   -0.44146E-05 10936   0.317E-02    0.136E-02
DAV:  17    -0.180417668600E+03   -0.12380E-04   -0.97112E-06  8136   0.113E-02    0.396E-03
DAV:  18    -0.180417668845E+03   -0.24526E-06   -0.37446E-07  5120   0.263E-03
   1 F= -.18041767E+03 E0= -.18017740E+03  d E =-.480530E+00  mag=    11.6748
