       N       E                     dE             d eps       ncg     rms          rms(c)
DAV:   1     0.143535592326E+03    0.14354E+03   -0.99872E+03130024   0.256E+03
DAV:   2    -0.524555734412E+01   -0.14878E+03   -0.13102E+03116116   0.296E+02
DAV:   3    -0.197248634433E+02   -0.14479E+02   -0.13893E+02120320   0.976E+01
DAV:   4    -0.204750534504E+02   -0.75019E+00   -0.73163E+00170056   0.199E+01
DAV:   5    -0.204977617384E+02   -0.22708E-01   -0.22611E-01142096   0.267E+00    0.186E+01
DAV:   6    -0.259642215957E+02   -0.54665E+01   -0.10275E+02159528   0.110E+02    0.284E+01
DAV:   7    -0.208064898874E+02    0.51577E+01   -0.32475E+01133744   0.874E+01    0.105E+01
DAV:   8    -0.209108236565E+02   -0.10433E+00   -0.13437E+00147480   0.100E+01    0.522E+00
DAV:   9    -0.209238264597E+02   -0.13003E-01   -0.15146E+00167348   0.105E+01    0.285E+00
DAV:  10    -0.208627519275E+02    0.61075E-01   -0.22349E-01150000   0.421E+00    0.109E+00
DAV:  11    -0.208554717087E+02    0.72802E-02   -0.17877E-02153280   0.132E+00    0.876E-01
DAV:  12    -0.208571520710E+02   -0.16804E-02   -0.23068E-02162576   0.140E+00    0.364E-01
DAV:  13    -0.208573607397E+02   -0.20867E-03   -0.19409E-03155800   0.294E-01    0.253E-01
DAV:  14    -0.208573763114E+02   -0.15572E-04   -0.26820E-03156264   0.468E-01    0.110E-01
DAV:  15    -0.208572767594E+02    0.99552E-04   -0.24119E-04154728   0.117E-01    0.525E-02
DAV:  16    -0.208572984920E+02   -0.21733E-04   -0.33559E-05156272   0.494E-02    0.248E-02
DAV:  17    -0.208572984939E+02   -0.18367E-08   -0.36886E-06173108   0.143E-02    0.119E-02
DAV:  18    -0.208572990089E+02   -0.51506E-06   -0.19278E-06157444   0.115E-02    0.911E-03
DAV:  19    -0.208572985399E+02    0.46905E-06   -0.61977E-07150000   0.709E-03    0.205E-03
DAV:  20    -0.208572987112E+02   -0.17135E-06   -0.79474E-08 85480   0.242E-03    0.641E-04
DAV:  21    -0.208572986715E+02    0.39729E-07   -0.34997E-08 59908   0.137E-03
   1 F= -.20857299E+02 E0= -.20857299E+02  d E =0.000000E+00  mag=     6.9809
