=========================================
SLURM_JOB_ID = 51706443
SLURM_JOB_NODELIST = lnode32
SLURM_GPUS = 
SLURM_CPUS_ON_NODE = 24
SLURM_JOB_PARTITION = lenovo
SLURM_TASK_PID = 407802
CUDA_VISIBLE_DEVICES = 
==========================================
 running on   24 total cores
 distrk:  each k-point on   24 cores,    1 groups
 distr:  one band on    4 cores,    6 groups
 using from now: INCAR     
 vasp.5.4.4.18Apr17-6-g9f103f2a35 (build Apr 28 2018 00:24:27) complex          
  
 POSCAR found type information on POSCAR  Fe O 
 POSCAR found :  2 types and      30 ions
 scaLAPACK will be used
 LDA part: xc-table for Pade appr. of Perdew
 POSCAR, INCAR and KPOINTS ok, starting setup
 FFT: planning ...
 WAVECAR not read
 entering main loop
       N       E                     dE             d eps       ncg     rms          rms(c)
DAV:   1     0.471583597710E+04    0.47158E+04   -0.16381E+05 11532   0.226E+03
DAV:   2     0.552009875875E+03   -0.41638E+04   -0.38023E+04 11424   0.624E+02
DAV:   3    -0.237909897824E+03   -0.78992E+03   -0.69055E+03 11892   0.259E+02
DAV:   4    -0.293840007861E+03   -0.55930E+02   -0.55264E+02 12936   0.676E+01
DAV:   5    -0.294477574714E+03   -0.63757E+00   -0.63571E+00 12792   0.812E+00    0.809E+01
DAV:   6    -0.235316256810E+03    0.59161E+02   -0.25313E+02 14844   0.810E+01    0.913E+01
DAV:   7    -0.211705030960E+03    0.23611E+02   -0.11371E+02 12216   0.635E+01    0.437E+01
DAV:   8    -0.218337504054E+03   -0.66325E+01   -0.21322E+01 12120   0.172E+01    0.264E+01
DAV:   9    -0.222545289921E+03   -0.42078E+01   -0.82593E+00 12624   0.171E+01    0.273E+01
DAV:  10    -0.222159309670E+03    0.38598E+00   -0.24808E+00 12576   0.699E+00    0.186E+01
DAV:  11    -0.221588906555E+03    0.57040E+00   -0.23613E-01 14292   0.285E+00    0.122E+01
DAV:  12    -0.221388201853E+03    0.20070E+00   -0.19450E-01 15264   0.238E+00    0.846E+00
DAV:  13    -0.221384125731E+03    0.40761E-02   -0.11282E-01 13908   0.227E+00    0.465E+00
DAV:  14    -0.221429795974E+03   -0.45670E-01   -0.15668E-01 15060   0.201E+00    0.179E+00
DAV:  15    -0.221448485419E+03   -0.18689E-01   -0.63715E-02 12456   0.678E-01    0.143E+00
DAV:  16    -0.221443267211E+03    0.52182E-02   -0.94968E-03 14340   0.723E-01    0.359E-01
DAV:  17    -0.221443953296E+03   -0.68608E-03   -0.47383E-03 12348   0.177E-01    0.187E-01
DAV:  18    -0.221444193296E+03   -0.24000E-03   -0.22150E-04 14148   0.781E-02    0.898E-02
DAV:  19    -0.221444249797E+03   -0.56501E-04   -0.96118E-05 13704   0.444E-02    0.181E-02
DAV:  20    -0.221444260161E+03   -0.10365E-04   -0.25711E-05 12540   0.157E-02    0.922E-03
DAV:  21    -0.221444259597E+03    0.56445E-06   -0.21383E-06 12540   0.763E-03    0.114E-02
DAV:  22    -0.221444260806E+03   -0.12090E-05   -0.11016E-06 10728   0.529E-03    0.556E-03
DAV:  23    -0.221444260369E+03    0.43674E-06   -0.29805E-07  9732   0.316E-03    0.909E-04
DAV:  24    -0.221444259686E+03    0.68285E-06   -0.92602E-08  6624   0.822E-04    0.433E-04
DAV:  25    -0.221444259587E+03    0.99448E-07   -0.57393E-09  6216   0.289E-04
   1 F= -.22144426E+03 E0= -.22144426E+03  d E =0.000000E+00  mag=    42.3323
