 vasp.5.4.4.18Apr17-6-g9f103f2a35 (build Apr 28 2018 00:24:27) complex          
  
 executed on             LinuxIFC date 2021.09.06  03:30:25
 running on   24 total cores
 distrk:  each k-point on   24 cores,    1 groups
 distr:  one band on NCORES_PER_BAND=   4 cores,    6 groups


--------------------------------------------------------------------------------------------------------


 INCAR:
 POTCAR:    PAW_PBE Fe_pv 02Aug2007               
 POTCAR:    PAW_PBE O 08Apr2002                   
 POTCAR:    PAW_PBE Fe_pv 02Aug2007               
   VRHFIN =Fe:  3pd7s1                                                          
   LEXCH  = PE                                                                  
   EATOM  =  2457.4239 eV,  180.6156 Ry                                         
                                                                                
   TITEL  = PAW_PBE Fe_pv 02Aug2007                                             
   LULTRA =        F    use ultrasoft PP ?                                      
   IUNSCR =        1    unscreen: 0-lin 1-nonlin 2-no                           
   RPACOR =    1.750    partial core radius                                     
   POMASS =   55.847; ZVAL   =   14.000    mass and valenz                      
   RCORE  =    2.200    outmost cutoff radius                                   
   RWIGS  =    2.200; RWIGS  =    1.164    wigner-seitz radius (au A)           
   ENMAX  =  293.238; ENMIN  =  219.928 eV                                      
   ICORE  =        3    local potential                                         
   LCOR   =        T    correct aug charges                                     
   LPAW   =        T    paw PP                                                  
   EAUG   =  578.342                                                            
   DEXC   =    0.000                                                            
   RMAX   =    2.249    core radius for proj-oper                               
   RAUG   =    1.300    factor for augmentation sphere                          
   RDEP   =    2.296    radius for radial grids                                 
   RDEPT  =    1.766    core radius for aug-charge                              
                                                                                
   Atomic configuration                                                         
    8 entries                                                                   
     n  l   j            E        occ.                                          
     1  0  0.50     -6993.8440   2.0000                                         
     2  0  0.50      -814.6047   2.0000                                         
     2  1  1.50      -693.3689   6.0000                                         
     3  0  0.50       -89.4732   2.0000                                         
     3  1  1.50       -55.6373   6.0000                                         
     3  2  2.50        -3.8151   7.0000                                         
     4  0  0.50        -4.2551   1.0000                                         
     4  3  2.50        -1.3606   0.0000                                         
   Description                                                                  
     l       E           TYP  RCUT    TYP  RCUT                                 
     1    -55.6372668     23  2.000                                             
     1     -5.4423304     23  2.000                                             
     2     -3.8151096     23  2.200                                             
     2     -5.1756922     23  2.200                                             
     0     -4.2550951     23  2.200                                             
     0     27.2116520     23  2.200                                             
     3     -1.3605826     23  2.200                                             
  local pseudopotential read in
  partial core-charges read in
  partial kinetic energy density read in
  atomic valenz-charges read in
  non local Contribution for L=           1  read in
    real space projection operators read in
  non local Contribution for L=           1  read in
    real space projection operators read in
  non local Contribution for L=           2  read in
    real space projection operators read in
  non local Contribution for L=           2  read in
    real space projection operators read in
  non local Contribution for L=           0  read in
    real space projection operators read in
  non local Contribution for L=           0  read in
    real space projection operators read in
    PAW grid and wavefunctions read in
 
   number of l-projection  operators is LMAX  =           6
   number of lm-projection operators is LMMAX =          18
 
 POTCAR:    PAW_PBE O 08Apr2002                   
   VRHFIN =O: s2p4                                                              
   LEXCH  = PE                                                                  
   EATOM  =   432.3788 eV,   31.7789 Ry                                         
                                                                                
   TITEL  = PAW_PBE O 08Apr2002                                                 
   LULTRA =        F    use ultrasoft PP ?                                      
   IUNSCR =        1    unscreen: 0-lin 1-nonlin 2-no                           
   RPACOR =    1.200    partial core radius                                     
   POMASS =   16.000; ZVAL   =    6.000    mass and valenz                      
   RCORE  =    1.520    outmost cutoff radius                                   
   RWIGS  =    1.550; RWIGS  =    0.820    wigner-seitz radius (au A)           
   ENMAX  =  400.000; ENMIN  =  300.000 eV                                      
   ICORE  =        2    local potential                                         
   LCOR   =        T    correct aug charges                                     
   LPAW   =        T    paw PP                                                  
   EAUG   =  605.392                                                            
   DEXC   =    0.000                                                            
   RMAX   =    1.553    core radius for proj-oper                               
   RAUG   =    1.300    factor for augmentation sphere                          
   RDEP   =    1.550    radius for radial grids                                 
   RDEPT  =    1.329    core radius for aug-charge                              
                                                                                
   Atomic configuration                                                         
    4 entries                                                                   
     n  l   j            E        occ.                                          
     1  0  0.50      -514.6923   2.0000                                         
     2  0  0.50       -23.9615   2.0000                                         
     2  1  0.50        -9.0305   4.0000                                         
     3  2  1.50        -9.5241   0.0000                                         
   Description                                                                  
     l       E           TYP  RCUT    TYP  RCUT                                 
     0    -23.9615318     23  1.200                                             
     0     -9.5240782     23  1.200                                             
     1     -9.0304911     23  1.520                                             
     1      8.1634956     23  1.520                                             
     2     -9.5240782      7  1.500                                             
  local pseudopotential read in
  partial core-charges read in
  partial kinetic energy density read in
  kinetic energy density of atom read in
  atomic valenz-charges read in
  non local Contribution for L=           0  read in
    real space projection operators read in
  non local Contribution for L=           0  read in
    real space projection operators read in
  non local Contribution for L=           1  read in
    real space projection operators read in
  non local Contribution for L=           1  read in
    real space projection operators read in
    PAW grid and wavefunctions read in
 
   number of l-projection  operators is LMAX  =           4
   number of lm-projection operators is LMMAX =           8
 
 Optimization of the real space projectors (new method)

 maximal supplied QI-value         = 17.01
 optimisation between [QCUT,QGAM] = [ 13.44, 27.04] = [ 50.55,204.78] Ry 
 Optimized for a Real-space Cutoff    1.36 Angstroem

   l    n(q)    QCUT    max X(q) W(low)/X(q) W(high)/X(q)  e(spline) 
   1     11    13.436     4.267    0.15E-03    0.98E-04    0.32E-06
   1     11    13.436     5.750    0.22E-03    0.15E-03    0.50E-06
   2     10    13.436    53.656    0.36E-04    0.52E-04    0.14E-06
   2     10    13.436    49.521    0.37E-04    0.53E-04    0.15E-06
   0     11    13.436    31.246    0.44E-04    0.11E-04    0.96E-07
   0     11    13.436    12.201    0.29E-04    0.93E-05    0.79E-07
 Optimization of the real space projectors (new method)

 maximal supplied QI-value         = 24.76
 optimisation between [QCUT,QGAM] = [ 13.37, 26.98] = [ 50.04,203.89] Ry 
 Optimized for a Real-space Cutoff    1.07 Angstroem

   l    n(q)    QCUT    max X(q) W(low)/X(q) W(high)/X(q)  e(spline) 
   0      9    13.368    20.381    0.21E-03    0.14E-03    0.16E-06
   0      9    13.368    15.268    0.22E-03    0.15E-03    0.16E-06
   1      8    13.368     5.964    0.23E-03    0.33E-03    0.15E-06
   1      8    13.368     5.382    0.20E-03    0.28E-03    0.13E-06
  PAW_PBE Fe_pv 02Aug2007               :
 energy of atom  1       EATOM=-2457.4239
 kinetic energy error for atom=    0.0025 (will be added to EATOM!!)
  PAW_PBE O 08Apr2002                   :
 energy of atom  2       EATOM= -432.3788
 kinetic energy error for atom=    0.0091 (will be added to EATOM!!)
 
 
 POSCAR: Fe12 O18                                
  positions in direct lattice
  No initial velocities read in
 exchange correlation table for  LEXCH =        8
   RHO(1)=    0.500       N(1)  =     2000
   RHO(2)=  100.500       N(2)  =     4000
 


--------------------------------------------------------------------------------------------------------


 ion  position               nearest neighbor table
   1  0.000  0.000  0.355-  17 1.94  23 1.94  28 1.94  25 2.12  19 2.12  13 2.12
   2  0.000  0.000  0.645-  16 1.94  22 1.94  29 1.94  26 2.12  20 2.12  14 2.12
   3  0.333  0.667  0.022-  30 1.94  24 1.94  18 1.94  27 2.12  21 2.12  15 2.12
   4  0.667  0.333  0.689-  14 1.94  20 1.94  26 1.94  22 2.12  29 2.12  16 2.12
   5  0.333  0.667  0.311-  13 1.94  19 1.94  25 1.94  23 2.12  28 2.12  17 2.12
   6  0.667  0.333  0.978-  27 1.94  21 1.94  15 1.94  30 2.12  24 2.12  18 2.12
   7  0.000  0.000  0.145-  24 1.94  18 1.94  30 1.94  25 2.12  19 2.12  13 2.12
   8  0.000  0.000  0.855-  21 1.94  15 1.94  27 1.94  26 2.12  20 2.12  14 2.12
   9  0.333  0.667  0.811-  20 1.94  14 1.94  26 1.94  27 2.12  21 2.12  15 2.12
  10  0.333  0.667  0.522-  29 1.94  16 1.94  22 1.94  23 2.12  28 2.12  17 2.12
  11  0.667  0.333  0.478-  28 1.94  17 1.94  23 1.94  22 2.12  29 2.12  16 2.12
  12  0.667  0.333  0.189-  19 1.94  13 1.94  25 1.94  30 2.12  24 2.12  18 2.12
  13  0.306  0.000  0.250-   5 1.94  12 1.94   7 2.12   1 2.12
  14  0.694  0.000  0.750-   4 1.94   9 1.94   8 2.12   2 2.12
  15  0.640  0.667  0.917-   6 1.94   8 1.94   9 2.12   3 2.12
  16  0.973  0.333  0.583-  10 1.94   2 1.94   4 2.12  11 2.12
  17  0.027  0.667  0.417-  11 1.94   1 1.94   5 2.12  10 2.12
  18  0.360  0.333  0.083-   3 1.94   7 1.94  12 2.12   6 2.12
  19  0.000  0.306  0.250-  12 1.94   5 1.94   7 2.12   1 2.12
  20  0.000  0.694  0.750-   9 1.94   4 1.94   8 2.12   2 2.12
  21  0.333  0.973  0.917-   6 1.94   8 1.94   9 2.12   3 2.12
  22  0.667  0.640  0.583-  10 1.94   2 1.94   4 2.12  11 2.12
  23  0.333  0.360  0.417-  11 1.94   1 1.94   5 2.12  10 2.12
  24  0.667  0.027  0.083-   3 1.94   7 1.94  12 2.12   6 2.12
  25  0.694  0.694  0.250-  12 1.94   5 1.94   7 2.12   1 2.12
  26  0.306  0.306  0.750-   9 1.94   4 1.94   8 2.12   2 2.12
  27  0.027  0.360  0.917-   6 1.94   8 1.94   9 2.12   3 2.12
  28  0.640  0.973  0.417-  11 1.94   1 1.94   5 2.12  10 2.12
  29  0.360  0.027  0.583-  10 1.94   2 1.94   4 2.12  11 2.12
  30  0.973  0.640  0.083-   3 1.94   7 1.94  12 2.12   6 2.12
 
  LATTYP: Found a hexagonal cell.
 ALAT       =     5.0350995578
 C/A-ratio  =     2.7324385232
  
  Lattice vectors:
  
 A1 = (   5.0351000000,   0.0000000000,   0.0000000000)
 A2 = (  -2.5175500000,   4.3605240000,   0.0000000000)
 A3 = (   0.0000000000,   0.0000000000,  13.7581000000)


Analysis of symmetry for initial positions (statically):
=====================================================================
 Subroutine PRICEL returns following result:
 
  LATTYP: Found a trigonal (rhomboedric) cell.
 ALAT       =     5.4297801492
 COS(alpha) =     0.5700456062
  
  Lattice vectors:
  
 A1 = (  -2.5175449649,  -1.4535109070,  -4.5860425054)
 A2 = (  -0.0000025175,   2.9070174535,  -4.5860287473)
 A3 = (   2.5175474825,  -1.4535065465,  -4.5860287473)
 
   3 primitive cells build up your supercell.
 

 Routine SETGRP: Setting up the symmetry group for a 
 hexagonal supercell.


 Subroutine GETGRP returns: Found 12 space group operations
 (whereof  6 operations were pure point group operations)
 out of a pool of 24 trial point group operations.


The static configuration has the point symmetry S_6 .
 The point group associated with its full space group is D_3d.


Analysis of symmetry for dynamics (positions and initial velocities):
=====================================================================
 Subroutine PRICEL returns following result:
 
  LATTYP: Found a trigonal (rhomboedric) cell.
 ALAT       =     5.4297801492
 COS(alpha) =     0.5700456062
  
  Lattice vectors:
  
 A1 = (  -2.5175449649,  -1.4535109070,  -4.5860425054)
 A2 = (  -0.0000025175,   2.9070174535,  -4.5860287473)
 A3 = (   2.5175474825,  -1.4535065465,  -4.5860287473)
 
   3 primitive cells build up your supercell.
 

 Routine SETGRP: Setting up the symmetry group for a 
 hexagonal supercell.


 Subroutine GETGRP returns: Found 12 space group operations
 (whereof  6 operations were pure point group operations)
 out of a pool of 24 trial point group operations.


The dynamic configuration has the point symmetry S_6 .
 The point group associated with its full space group is D_3d.


Analysis of structural, dynamic, and magnetic symmetry:
=====================================================================
 Subroutine PRICEL returns following result:
 
  LATTYP: Found a trigonal (rhomboedric) cell.
 ALAT       =     5.4297801492
 COS(alpha) =     0.5700456062
  
  Lattice vectors:
  
 A1 = (  -2.5175449649,  -1.4535109070,  -4.5860425054)
 A2 = (  -0.0000025175,   2.9070174535,  -4.5860287473)
 A3 = (   2.5175474825,  -1.4535065465,  -4.5860287473)
 
   3 primitive cells build up your supercell.
 

 Routine SETGRP: Setting up the symmetry group for a 
 hexagonal supercell.


 Subroutine GETGRP returns: Found 12 space group operations
 (whereof  6 operations were pure point group operations)
 out of a pool of 24 trial point group operations.


The magnetic configuration has the point symmetry S_6 .
 The point group associated with its full space group is D_3d.


 Subroutine INISYM returns: Found 12 space group operations
 (whereof  6 operations are pure point group operations),
 and found     3 'primitive' translations

 
 
 KPOINTS: pymatgen with grid density = 2464 / numb

Automatic generation of k-mesh.
Space group operators:
 irot       det(A)        alpha          n_x          n_y          n_z        tau_x        tau_y        tau_z
    1     1.000000     0.000000     1.000000     0.000000     0.000000     0.000000     0.000000     0.000000
    2    -1.000000     0.000000     1.000000     0.000000     0.000000     0.000000     0.000000     0.000000
    3     1.000000   120.000000     0.000000     0.000000    -1.000000     0.000000     0.000000     0.000000
    4    -1.000000   120.000000     0.000000     0.000000    -1.000000     0.000000     0.000000     0.000000
    5     1.000000   120.000000     0.000000     0.000000     1.000000     0.000000     0.000000     0.000000
    6    -1.000000   120.000000     0.000000     0.000000     1.000000     0.000000     0.000000     0.000000
    7     1.000000   180.000000     1.000000     0.000000     0.000000     0.000001    -0.000000    -0.500000
    8    -1.000000   180.000000     1.000000     0.000000     0.000000     0.000001    -0.000000    -0.500000
    9     1.000000   180.000000     0.500000    -0.866025     0.000000     0.000000     0.000000    -0.500000
   10    -1.000000   180.000000     0.500000    -0.866025     0.000000     0.000000     0.000000    -0.500000
   11     1.000000   180.000000    -0.500000    -0.866025     0.000000     0.000000     0.000000    -0.500000
   12    -1.000000   180.000000    -0.500000    -0.866025     0.000000     0.000000     0.000000    -0.500000
 
 Subroutine IBZKPT returns following result:
 ===========================================
 
 Found     14 irreducible k-points:
 
 Following reciprocal coordinates:
            Coordinates               Weight
  0.000000  0.000000  0.000000      1.000000
  0.166667  0.000000  0.000000      6.000000
  0.333333  0.000000  0.000000      6.000000
  0.500000  0.000000  0.000000      3.000000
  0.166667  0.166667  0.000000      6.000000
  0.333333  0.166667  0.000000     12.000000
  0.333333  0.333333  0.000000      2.000000
  0.000000  0.000000  0.500000      1.000000
  0.166667  0.000000  0.500000      6.000000
  0.333333  0.000000  0.500000      6.000000
  0.500000  0.000000  0.500000      3.000000
  0.166667  0.166667  0.500000      6.000000
  0.333333  0.166667  0.500000     12.000000
  0.333333  0.333333  0.500000      2.000000
 
 Following cartesian coordinates:
            Coordinates               Weight
  0.000000  0.000000  0.000000      1.000000
  0.033101  0.019111  0.000000      6.000000
  0.066202  0.038222  0.000000      6.000000
  0.099303  0.057333  0.000000      3.000000
  0.033101  0.057333  0.000000      6.000000
  0.066202  0.076443  0.000000     12.000000
  0.066202  0.114665  0.000000      2.000000
  0.000000  0.000000  0.036342      1.000000
  0.033101  0.019111  0.036342      6.000000
  0.066202  0.038222  0.036342      6.000000
  0.099303  0.057333  0.036342      3.000000
  0.033101  0.057333  0.036342      6.000000
  0.066202  0.076443  0.036342     12.000000
  0.066202  0.114665  0.036342      2.000000
 
 TETIRR: Found     71 inequivalent tetrahedra from      432


--------------------------------------------------------------------------------------------------------




 Dimension of arrays:
   k-points           NKPTS =     14   k-points in BZ     NKDIM =     14   number of bands    NBANDS=    204
   number of dos      NEDOS =    301   number of ions     NIONS =     30
   non local maximal  LDIM  =      6   non local SUM 2l+1 LMDIM =     18
   total plane-waves  NPLWV = 276480
   max r-space proj   IRMAX =   9729   max aug-charges    IRDMAX=  27304
   dimension x,y,z NGX =    48 NGY =   48 NGZ =  120
   dimension x,y,z NGXF=    96 NGYF=   96 NGZF=  240
   support grid    NGXF=    96 NGYF=   96 NGZF=  240
   ions per type =              12  18
   NGX,Y,Z   is equivalent  to a cutoff of  15.85, 15.85, 14.50 a.u.
   NGXF,Y,Z  is equivalent  to a cutoff of  31.70, 31.70, 29.00 a.u.

 SYSTEM =  unknown system                          
 POSCAR =  Fe12 O18                                

 Startparameter for this run:
   NWRITE =      2    write-flag & timer
   PREC   = accura    normal or accurate (medium, high low for compatibility)
   ISTART =      0    job   : 0-new  1-cont  2-samecut
   ICHARG =      2    charge: 1-file 2-atom 10-const
   ISPIN  =      2    spin polarized calculation?
   LNONCOLLINEAR =      F non collinear calculations
   LSORBIT =      F    spin-orbit coupling
   INIWAV =      1    electr: 0-lowe 1-rand  2-diag
   LASPH  =      F    aspherical Exc in radial PAW
   METAGGA=      F    non-selfconsistent MetaGGA calc.

 Electronic Relaxation 1
   ENCUT  =  700.0 eV  51.45 Ry    7.17 a.u.  10.86 10.86 29.68*2*pi/ulx,y,z
   ENINI  =  700.0     initial cutoff
   ENAUG  =  605.4 eV  augmentation charge cutoff
   NELM   =    100;   NELMIN=  2; NELMDL= -5     # of ELM steps 
   EDIFF  = 0.1E-06   stopping-criterion for ELM
   LREAL  =      T    real-space projection
   NLSPLINE    = F    spline interpolate recip. space projectors
   LCOMPAT=      F    compatible to vasp.4.4
   GGA_COMPAT  = T    GGA compatible to vasp.4.4-vasp.4.6
   LMAXPAW     = -100 max onsite density
   LMAXMIX     =    2 max onsite mixed and CHGCAR
   VOSKOWN=      0    Vosko Wilk Nusair interpolation
   ROPT   =   -0.00025  -0.00025
 Ionic relaxation
   EDIFFG = 0.1E-05   stopping-criterion for IOM
   NSW    =      0    number of steps for IOM
   NBLOCK =      1;   KBLOCK =      1    inner block; outer block 
   IBRION =     -1    ionic relax: 0-MD 1-quasi-New 2-CG
   NFREE  =      0    steps in history (QN), initial steepest desc. (CG)
   ISIF   =      3    stress and relaxation
   IWAVPR =     10    prediction:  0-non 1-charg 2-wave 3-comb
   ISYM   =      2    0-nonsym 1-usesym 2-fastsym
   LCORR  =      T    Harris-Foulkes like correction to forces

   POTIM  = 0.5000    time-step for ionic-motion
   TEIN   =    0.0    initial temperature
   TEBEG  =    0.0;   TEEND  =   0.0 temperature during run
   SMASS  =  -3.00    Nose mass-parameter (am)
   estimated Nose-frequenzy (Omega)   =  0.10E-29 period in steps =****** mass=  -0.579E-27a.u.
   SCALEE = 1.0000    scale energy and forces
   NPACO  =    256;   APACO  = 16.0  distance and # of slots for P.C.
   PSTRESS=    0.0 pullay stress

  Mass of Ions in am
   POMASS =  55.85 16.00
  Ionic Valenz
   ZVAL   =  14.00  6.00
  Atomic Wigner-Seitz radii
   RWIGS  =  -1.00 -1.00
  virtual crystal weights 
   VCA    =   1.00  1.00
   NELECT =     276.0000    total number of electrons
   NUPDOWN=      -1.0000    fix difference up-down

 DOS related values:
   EMIN   =  10.00;   EMAX   =-10.00  energy-range for DOS
   EFERMI =   0.00
   ISMEAR =    -5;   SIGMA  =   0.05  broadening in eV -4-tet -1-fermi 0-gaus

 Electronic relaxation 2 (details)
   IALGO  =     38    algorithm
   LDIAG  =      T    sub-space diagonalisation (order eigenvalues)
   LSUBROT=      F    optimize rotation matrix (better conditioning)
   TURBO    =      0    0=normal 1=particle mesh
   IRESTART =      0    0=no restart 2=restart with 2 vectors
   NREBOOT  =      0    no. of reboots
   NMIN     =      0    reboot dimension
   EREF     =   0.00    reference energy to select bands
   IMIX   =      4    mixing-type and parameters
     AMIX     =   0.40;   BMIX     =  1.00
     AMIX_MAG =   1.60;   BMIX_MAG =  1.00
     AMIN     =   0.10
     WC   =   100.;   INIMIX=   1;  MIXPRE=   1;  MAXMIX= -45

 Intra band minimization:
   WEIMIN = 0.0000     energy-eigenvalue tresh-hold
   EBREAK =  0.12E-09  absolut break condition
   DEPER  =   0.30     relativ break condition  

   TIME   =   0.40     timestep for ELM

  volume/ion in A,a.u.               =      10.07        67.95
  Fermi-wavevector in a.u.,A,eV,Ry     =   1.588581  3.001983 34.335534  2.523591
  Thomas-Fermi vector in A             =   2.687563
 
 Write flags
   LWAVE        =      F    write WAVECAR
   LDOWNSAMPLE  =      F    k-point downsampling of WAVECAR
   LCHARG       =      F    write CHGCAR
   LVTOT        =      F    write LOCPOT, total local potential
   LVHAR        =      F    write LOCPOT, Hartree potential only
   LELF         =      F    write electronic localiz. function (ELF)
   LORBIT       =     11    0 simple, 1 ext, 2 COOP (PROOUT), +10 PAW based schemes


 Dipole corrections
   LMONO  =      F    monopole corrections only (constant potential shift)
   LDIPOL =      F    correct potential (dipole corrections)
   IDIPOL =      0    1-x, 2-y, 3-z, 4-all directions 
   EPSILON=  1.0000000 bulk dielectric constant

 Exchange correlation treatment:
   GGA     =    --    GGA type
   LEXCH   =     8    internal setting for exchange type
   VOSKOWN=      0    Vosko Wilk Nusair interpolation
   LHFCALC =     F    Hartree Fock is set to
   LHFONE  =     F    Hartree Fock one center treatment
   AEXX    =    0.0000 exact exchange contribution

 Linear response parameters
   LEPSILON=     F    determine dielectric tensor
   LRPA    =     F    only Hartree local field effects (RPA)
   LNABLA  =     F    use nabla operator in PAW spheres
   LVEL    =     F    velocity operator in full k-point grid
   LINTERFAST=   F  fast interpolation
   KINTER  =     0    interpolate to denser k-point grid
   CSHIFT  =0.1000    complex shift for real part using Kramers Kronig
   OMEGAMAX=  -1.0    maximum frequency
   DEG_THRESHOLD= 0.2000000E-02 threshold for treating states as degnerate
   RTIME   =   -0.100 relaxation time in fs
  (WPLASMAI=    0.000 imaginary part of plasma frequency in eV, 0.658/RTIME)
   DFIELD  = 0.0000000 0.0000000 0.0000000 field for delta impulse in time
 
 Orbital magnetization related:
   ORBITALMAG=     F  switch on orbital magnetization
   LCHIMAG   =     F  perturbation theory with respect to B field
   DQ        =  0.001000  dq finite difference perturbation B field
   LLRAUG    =     F  two centre corrections for induced B field



--------------------------------------------------------------------------------------------------------


 Static calculation
 charge density and potential will be updated during run
 spin polarized calculation
 Variant of blocked Davidson
 Davidson routine will perform the subspace rotation
 perform sub-space diagonalisation
    after iterative eigenvector-optimisation
 modified Broyden-mixing scheme, WC =      100.0
 initial mixing is a Kerker type mixing with AMIX =  0.4000 and BMIX =      1.0000
 Hartree-type preconditioning will be used
 using additional bands           66
 real space projection scheme for non local part
 use partial core corrections
 calculate Harris-corrections to forces 
   (improved forces if not selfconsistent)
 use gradient corrections 
 use of overlap-Matrix (Vanderbilt PP)
 Fermi weights with tetrahedron method with Bloechl corrections


--------------------------------------------------------------------------------------------------------


  energy-cutoff  :      700.00
  volume of cell :      302.07
      direct lattice vectors                 reciprocal lattice vectors
     5.035100000  0.000000000  0.000000000     0.198605787  0.114665118  0.000000000
    -2.517550000  4.360524000  0.000000000     0.000000000  0.229330236  0.000000000
     0.000000000  0.000000000 13.758100000     0.000000000  0.000000000  0.072684455

  length of vectors
     5.035100000  5.035099558 13.758100000     0.229330216  0.229330236  0.072684455


 
 k-points in units of 2pi/SCALE and weight: pymatgen with grid density = 2464 / numb
   0.00000000  0.00000000  0.00000000       0.014
   0.03310096  0.01911085  0.00000000       0.083
   0.06620193  0.03822171  0.00000000       0.083
   0.09930289  0.05733256  0.00000000       0.042
   0.03310096  0.05733256  0.00000000       0.083
   0.06620193  0.07644341  0.00000000       0.167
   0.06620193  0.11466512  0.00000000       0.028
   0.00000000  0.00000000  0.03634223       0.014
   0.03310096  0.01911085  0.03634223       0.083
   0.06620193  0.03822171  0.03634223       0.083
   0.09930289  0.05733256  0.03634223       0.042
   0.03310096  0.05733256  0.03634223       0.083
   0.06620193  0.07644341  0.03634223       0.167
   0.06620193  0.11466512  0.03634223       0.028
 
 k-points in reciprocal lattice and weights: pymatgen with grid density = 2464 / numb
   0.00000000  0.00000000  0.00000000       0.014
   0.16666667  0.00000000  0.00000000       0.083
   0.33333333  0.00000000  0.00000000       0.083
   0.50000000  0.00000000  0.00000000       0.042
   0.16666667  0.16666667  0.00000000       0.083
   0.33333333  0.16666667  0.00000000       0.167
   0.33333333  0.33333333  0.00000000       0.028
   0.00000000  0.00000000  0.50000000       0.014
   0.16666667  0.00000000  0.50000000       0.083
   0.33333333  0.00000000  0.50000000       0.083
   0.50000000  0.00000000  0.50000000       0.042
   0.16666667  0.16666667  0.50000000       0.083
   0.33333333  0.16666667  0.50000000       0.167
   0.33333333  0.33333333  0.50000000       0.028
 
 position of ions in fractional coordinates (direct lattice) 
   0.00000000  0.00000000  0.35532000
   0.00000000  0.00000000  0.64468000
   0.33333300  0.66666700  0.02198700
   0.66666700  0.33333300  0.68865300
   0.33333300  0.66666700  0.31134700
   0.66666700  0.33333300  0.97801300
   0.00000000  0.00000000  0.14468000
   0.00000000  0.00000000  0.85532000
   0.33333300  0.66666700  0.81134700
   0.33333300  0.66666700  0.52198700
   0.66666700  0.33333300  0.47801300
   0.66666700  0.33333300  0.18865300
   0.30618000  0.00000000  0.25000000
   0.69382000  0.00000000  0.75000000
   0.63951300  0.66666700  0.91666700
   0.97284700  0.33333300  0.58333300
   0.02715300  0.66666700  0.41666700
   0.36048700  0.33333300  0.08333300
   0.00000000  0.30618000  0.25000000
   0.00000000  0.69382000  0.75000000
   0.33333300  0.97284700  0.91666700
   0.66666700  0.63951300  0.58333300
   0.33333300  0.36048700  0.41666700
   0.66666700  0.02715300  0.08333300
   0.69382000  0.69382000  0.25000000
   0.30618000  0.30618000  0.75000000
   0.02715300  0.36048700  0.91666700
   0.63951300  0.97284700  0.41666700
   0.36048700  0.02715300  0.58333300
   0.97284700  0.63951300  0.08333300
 
 position of ions in cartesian coordinates  (Angst):
   0.00000000  0.00000000  4.88852809
   0.00000000  0.00000000  8.86957191
  -0.00000252  2.90701745  0.30249934
   2.51755252  1.45350655  9.47455684
  -0.00000252  2.90701745  4.28354316
   2.51755252  1.45350655 13.45560066
   0.00000000  0.00000000  1.99052191
   0.00000000  0.00000000 11.76757809
  -0.00000252  2.90701745 11.16259316
  -0.00000252  2.90701745  7.18154934
   2.51755252  1.45350655  6.57655066
   2.51755252  1.45350655  2.59550684
   1.54164692  0.00000000  3.43952500
   3.49345308  0.00000000 10.31857500
   1.54164440  2.90701745 12.61159625
   4.05919944  1.45350655  8.02555375
  -1.54164944  2.90701745  5.73254625
   0.97590560  1.45350655  1.14650375
  -0.77082346  1.33510524  3.43952500
  -1.74672654  3.02541876 10.31857500
  -0.77082598  4.24212269 12.61159625
   1.74672906  2.78861178  8.02555375
   0.77082094  1.57191222  5.73254625
   3.28837598  0.11840131  1.14650375
   1.74672654  3.02541876  3.43952500
   0.77082346  1.33510524 10.31857500
  -0.77082598  1.57191222 12.61159625
   0.77082094  4.24212269  5.73254625
   1.74672906  0.11840131  8.02555375
   3.28837598  2.78861178  1.14650375
 


--------------------------------------------------------------------------------------------------------


 k-point  1 :   0.0000 0.0000 0.0000  plane waves:   12659
 k-point  2 :   0.1667 0.0000 0.0000  plane waves:   12701
 k-point  3 :   0.3333 0.0000 0.0000  plane waves:   12723
 k-point  4 :   0.5000 0.0000 0.0000  plane waves:   12748
 k-point  5 :   0.1667 0.1667 0.0000  plane waves:   12695
 k-point  6 :   0.3333 0.1667 0.0000  plane waves:   12706
 k-point  7 :   0.3333 0.3333 0.0000  plane waves:   12681
 k-point  8 :   0.0000 0.0000 0.5000  plane waves:   12720
 k-point  9 :   0.1667 0.0000 0.5000  plane waves:   12678
 k-point 10 :   0.3333 0.0000 0.5000  plane waves:   12710
 k-point 11 :   0.5000 0.0000 0.5000  plane waves:   12708
 k-point 12 :   0.1667 0.1667 0.5000  plane waves:   12686
 k-point 13 :   0.3333 0.1667 0.5000  plane waves:   12710
 k-point 14 :   0.3333 0.3333 0.5000  plane waves:   12750

 maximum and minimum number of plane-waves per node :      3215     3130

 maximum number of plane-waves:     12750
 maximum index in each direction: 
   IXMAX=   10   IYMAX=   10   IZMAX=   29
   IXMIN=  -11   IYMIN=  -11   IZMIN=  -30


 real space projection operators:
  total allocation   :      21066.75 KBytes
  max/ min on nodes  :       5304.00       5242.50


 parallel 3D FFT for wavefunctions:
    minimum data exchange during FFTs selected (reduces bandwidth)
 parallel 3D FFT for charge:
    minimum data exchange during FFTs selected (reduces bandwidth)


 total amount of memory used by VASP MPI-rank0   110277. kBytes
=======================================================================

   base      :      30000. kBytes
   nonlr-proj:      11455. kBytes
   fftplans  :       5157. kBytes
   grid      :      12969. kBytes
   one-center:        248. kBytes
   wavefun   :      50448. kBytes
 
     INWAV:  cpu time    0.0000: real time    0.0001
 Broyden mixing: mesh for mixing (old mesh)
   NGX = 21   NGY = 21   NGZ = 59
  (NGX  = 96   NGY  = 96   NGZ  =240)
  gives a total of  26019 points

 initial charge density was supplied:
 charge density of overlapping atoms calculated
 number of electron     276.0000000 magnetization      70.8000000
 keeping initial charge density in first step


--------------------------------------------------------------------------------------------------------


 Maximum index for non-local projection operator         2362
 Maximum index for augmentation-charges         1198 (set IRDMAX)


--------------------------------------------------------------------------------------------------------


 First call to EWALD:  gamma=   0.264
 Maximum number of real-space cells 4x 4x 2
 Maximum number of reciprocal cells 2x 2x 5

    FEWALD:  cpu time    0.0019: real time    0.0019


--------------------------------------- Iteration      1(   1)  ---------------------------------------


    POTLOK:  cpu time    0.1209: real time    0.1213
    SETDIJ:  cpu time    0.0147: real time    0.0147
     EDDAV:  cpu time   19.0480: real time   19.1020
 BZINTS: Fermi energy: 30.769266;276.000000 electrons
         Band energy:1699.301561;  BLOECHL correction: -0.113843
       DOS:  cpu time    0.0445: real time    0.0446
    --------------------------------------------
      LOOP:  cpu time   19.2281: real time   19.2827

 eigenvalue-minimisations  : 11532
 total energy-change (2. order) : 0.4715836E+04  (-0.1638137E+05)
 number of electron     276.0000000 magnetization      70.8000000
 augmentation part      276.0000000 magnetization      70.8000000

 Free energy of the ion-electron system (eV)
  ---------------------------------------------------
  alpha Z        PSCENC =      1362.55286497
  Ewald energy   TEWEN  =    -25513.06237826
  -Hartree energ DENC   =    -10371.14386019
  -exchange      EXHF   =         0.00000000
  -V(xc)+E(xc)   XCENC  =      1375.27778611
  PAW double counting   =     30224.59406688   -31333.39571732
  entropy T*S    EENTRO =         0.00000000
  eigenvalues    EBANDS =      1699.30156111
  atomic energy  EATOM  =     37271.71165380
  Solvation  Ediel_sol  =         0.00000000
  ---------------------------------------------------
  free energy    TOTEN  =      4715.83597710 eV

  energy without entropy =     4715.83597710  energy(sigma->0) =     4715.83597710


--------------------------------------------------------------------------------------------------------




--------------------------------------- Iteration      1(   2)  ---------------------------------------


     EDDAV:  cpu time   19.1304: real time   19.1794
 BZINTS: Fermi energy: 11.836608;276.000000 electrons
         Band energy:***********;  BLOECHL correction: -0.040063
       DOS:  cpu time    0.0481: real time    0.0482
    --------------------------------------------
      LOOP:  cpu time   19.1785: real time   19.2276

 eigenvalue-minimisations  : 11424
 total energy-change (2. order) :-0.4163826E+04  (-0.3802347E+04)
 number of electron     276.0000000 magnetization      70.8000000
 augmentation part      276.0000000 magnetization      70.8000000

 Free energy of the ion-electron system (eV)
  ---------------------------------------------------
  alpha Z        PSCENC =      1362.55286497
  Ewald energy   TEWEN  =    -25513.06237826
  -Hartree energ DENC   =    -10371.14386019
  -exchange      EXHF   =         0.00000000
  -V(xc)+E(xc)   XCENC  =      1375.27778611
  PAW double counting   =     30224.59406688   -31333.39571732
  entropy T*S    EENTRO =         0.00000000
  eigenvalues    EBANDS =     -2464.52454012
  atomic energy  EATOM  =     37271.71165380
  Solvation  Ediel_sol  =         0.00000000
  ---------------------------------------------------
  free energy    TOTEN  =       552.00987588 eV

  energy without entropy =      552.00987588  energy(sigma->0) =      552.00987588


--------------------------------------------------------------------------------------------------------




--------------------------------------- Iteration      1(   3)  ---------------------------------------


     EDDAV:  cpu time   19.5452: real time   19.5950
 BZINTS: Fermi energy:  8.668445;276.000000 electrons
         Band energy:***********;  BLOECHL correction:  0.000000
       DOS:  cpu time    0.0061: real time    0.0061
    --------------------------------------------
      LOOP:  cpu time   19.5513: real time   19.6011

 eigenvalue-minimisations  : 11892
 total energy-change (2. order) :-0.7899198E+03  (-0.6905524E+03)
 number of electron     276.0000000 magnetization      70.8000000
 augmentation part      276.0000000 magnetization      70.8000000

 Free energy of the ion-electron system (eV)
  ---------------------------------------------------
  alpha Z        PSCENC =      1362.55286497
  Ewald energy   TEWEN  =    -25513.06237826
  -Hartree energ DENC   =    -10371.14386019
  -exchange      EXHF   =         0.00000000
  -V(xc)+E(xc)   XCENC  =      1375.27778611
  PAW double counting   =     30224.59406688   -31333.39571732
  entropy T*S    EENTRO =         0.00000000
  eigenvalues    EBANDS =     -3254.44431382
  atomic energy  EATOM  =     37271.71165380
  Solvation  Ediel_sol  =         0.00000000
  ---------------------------------------------------
  free energy    TOTEN  =      -237.90989782 eV

  energy without entropy =     -237.90989782  energy(sigma->0) =     -237.90989782


--------------------------------------------------------------------------------------------------------




--------------------------------------- Iteration      1(   4)  ---------------------------------------


     EDDAV:  cpu time   20.7214: real time   20.7737
 BZINTS: Fermi energy:  8.259362;276.000000 electrons
         Band energy:***********;  BLOECHL correction:  0.000000
       DOS:  cpu time    0.0061: real time    0.0061
    --------------------------------------------
      LOOP:  cpu time   20.7275: real time   20.7798

 eigenvalue-minimisations  : 12936
 total energy-change (2. order) :-0.5593011E+02  (-0.5526424E+02)
 number of electron     276.0000000 magnetization      70.8000000
 augmentation part      276.0000000 magnetization      70.8000000

 Free energy of the ion-electron system (eV)
  ---------------------------------------------------
  alpha Z        PSCENC =      1362.55286497
  Ewald energy   TEWEN  =    -25513.06237826
  -Hartree energ DENC   =    -10371.14386019
  -exchange      EXHF   =         0.00000000
  -V(xc)+E(xc)   XCENC  =      1375.27778611
  PAW double counting   =     30224.59406688   -31333.39571732
  entropy T*S    EENTRO =         0.00000000
  eigenvalues    EBANDS =     -3310.37442386
  atomic energy  EATOM  =     37271.71165380
  Solvation  Ediel_sol  =         0.00000000
  ---------------------------------------------------
  free energy    TOTEN  =      -293.84000786 eV

  energy without entropy =     -293.84000786  energy(sigma->0) =     -293.84000786


--------------------------------------------------------------------------------------------------------




--------------------------------------- Iteration      1(   5)  ---------------------------------------


     EDDAV:  cpu time   19.7973: real time   19.8475
 BZINTS: Fermi energy:  8.294869;276.000000 electrons
         Band energy:***********;  BLOECHL correction:  0.000000
       DOS:  cpu time    0.0073: real time    0.0073
    CHARGE:  cpu time    0.7105: real time    0.7124
    MIXING:  cpu time    0.0027: real time    0.0028
    --------------------------------------------
      LOOP:  cpu time   20.5179: real time   20.5700

 eigenvalue-minimisations  : 12792
 total energy-change (2. order) :-0.6375669E+00  (-0.6357104E+00)
 number of electron     275.9999965 magnetization      67.8179403
 augmentation part      108.0158526 magnetization      47.0425507

 Broyden mixing:
  rms(total) = 0.80911E+01    rms(broyden)= 0.80910E+01
  rms(prec ) = 0.88373E+01
  weight for this iteration     100.00

 Free energy of the ion-electron system (eV)
  ---------------------------------------------------
  alpha Z        PSCENC =      1362.55286497
  Ewald energy   TEWEN  =    -25513.06237826
  -Hartree energ DENC   =    -10371.14386019
  -exchange      EXHF   =         0.00000000
  -V(xc)+E(xc)   XCENC  =      1375.27778611
  PAW double counting   =     30224.59406688   -31333.39571732
  entropy T*S    EENTRO =         0.00000000
  eigenvalues    EBANDS =     -3311.01199071
  atomic energy  EATOM  =     37271.71165380
  Solvation  Ediel_sol  =         0.00000000
  ---------------------------------------------------
  free energy    TOTEN  =      -294.47757471 eV

  energy without entropy =     -294.47757471  energy(sigma->0) =     -294.47757471


--------------------------------------------------------------------------------------------------------




--------------------------------------- Iteration      1(   6)  ---------------------------------------


    POTLOK:  cpu time    0.1149: real time    0.1157
    SETDIJ:  cpu time    0.0147: real time    0.0148
     EDDAV:  cpu time   23.2090: real time   23.2676
 BZINTS: Fermi energy:  5.534940;276.000000 electrons
         Band energy:***********;  BLOECHL correction: -0.054904
       DOS:  cpu time    0.0474: real time    0.0475
    CHARGE:  cpu time    0.7240: real time    0.7259
    MIXING:  cpu time    0.0027: real time    0.0028
    --------------------------------------------
      LOOP:  cpu time   24.1128: real time   24.1742

 eigenvalue-minimisations  : 14844
 total energy-change (2. order) : 0.5916132E+02  (-0.2531295E+02)
 number of electron     275.9999970 magnetization      62.9828758
 augmentation part      120.7161651 magnetization      54.4190219

 Broyden mixing:
  rms(total) = 0.91257E+01    rms(broyden)= 0.91255E+01
  rms(prec ) = 0.97751E+01
  weight for this iteration     100.00

 eigenvalues of (default mixing * dielectric matrix)
  average eigenvalue GAMMA=   0.3183
  0.3183

 Free energy of the ion-electron system (eV)
  ---------------------------------------------------
  alpha Z        PSCENC =      1362.55286497
  Ewald energy   TEWEN  =    -25513.06237826
  -Hartree energ DENC   =     -9965.74940286
  -exchange      EXHF   =         0.00000000
  -V(xc)+E(xc)   XCENC  =      1376.64478714
  PAW double counting   =     31437.51164974   -32504.38196631
  entropy T*S    EENTRO =         0.00000000
  eigenvalues    EBANDS =     -3700.54346504
  atomic energy  EATOM  =     37271.71165380
  Solvation  Ediel_sol  =         0.00000000
  ---------------------------------------------------
  free energy    TOTEN  =      -235.31625681 eV

  energy without entropy =     -235.31625681  energy(sigma->0) =     -235.31625681


--------------------------------------------------------------------------------------------------------




--------------------------------------- Iteration      1(   7)  ---------------------------------------


    POTLOK:  cpu time    0.1154: real time    0.1157
    SETDIJ:  cpu time    0.0146: real time    0.0147
     EDDAV:  cpu time   19.8777: real time   19.9284
 BZINTS: Fermi energy:  7.081306;276.000000 electrons
         Band energy:***********;  BLOECHL correction: -0.036276
       DOS:  cpu time    0.0471: real time    0.0472
    CHARGE:  cpu time    0.7238: real time    0.7257
    MIXING:  cpu time    0.0030: real time    0.0030
    --------------------------------------------
      LOOP:  cpu time   20.7816: real time   20.8347

 eigenvalue-minimisations  : 12216
 total energy-change (2. order) : 0.2361123E+02  (-0.1137117E+02)
 number of electron     275.9999968 magnetization      58.7901733
 augmentation part      109.3569847 magnetization      40.3087029

 Broyden mixing:
  rms(total) = 0.43684E+01    rms(broyden)= 0.43683E+01
  rms(prec ) = 0.45285E+01
  weight for this iteration     100.00

 eigenvalues of (default mixing * dielectric matrix)
  average eigenvalue GAMMA=   0.6795
  1.0289  0.3300

 Free energy of the ion-electron system (eV)
  ---------------------------------------------------
  alpha Z        PSCENC =      1362.55286497
  Ewald energy   TEWEN  =    -25513.06237826
  -Hartree energ DENC   =    -10207.62200756
  -exchange      EXHF   =         0.00000000
  -V(xc)+E(xc)   XCENC  =      1372.44896907
  PAW double counting   =     32870.22516401   -33998.62683693
  entropy T*S    EENTRO =         0.00000000
  eigenvalues    EBANDS =     -3369.33246006
  atomic energy  EATOM  =     37271.71165380
  Solvation  Ediel_sol  =         0.00000000
  ---------------------------------------------------
  free energy    TOTEN  =      -211.70503096 eV

  energy without entropy =     -211.70503096  energy(sigma->0) =     -211.70503096


--------------------------------------------------------------------------------------------------------




--------------------------------------- Iteration      1(   8)  ---------------------------------------


    POTLOK:  cpu time    0.1153: real time    0.1157
    SETDIJ:  cpu time    0.0147: real time    0.0147
     EDDAV:  cpu time   19.7451: real time   19.7949
 BZINTS: Fermi energy:  6.448444;276.000000 electrons
         Band energy:***********;  BLOECHL correction: -0.034135
       DOS:  cpu time    0.0514: real time    0.0516
    CHARGE:  cpu time    0.7183: real time    0.7202
    MIXING:  cpu time    0.0027: real time    0.0028
    --------------------------------------------
      LOOP:  cpu time   20.6475: real time   20.6998

 eigenvalue-minimisations  : 12120
 total energy-change (2. order) :-0.6632473E+01  (-0.2132198E+01)
 number of electron     275.9999968 magnetization      51.9099136
 augmentation part      111.2640485 magnetization      34.9967930

 Broyden mixing:
  rms(total) = 0.26439E+01    rms(broyden)= 0.26439E+01
  rms(prec ) = 0.27039E+01
  weight for this iteration     100.00

 eigenvalues of (default mixing * dielectric matrix)
  average eigenvalue GAMMA=   1.0802
  2.2729  0.5858  0.3819

 Free energy of the ion-electron system (eV)
  ---------------------------------------------------
  alpha Z        PSCENC =      1362.55286497
  Ewald energy   TEWEN  =    -25513.06237826
  -Hartree energ DENC   =    -10072.97489067
  -exchange      EXHF   =         0.00000000
  -V(xc)+E(xc)   XCENC  =      1366.43098749
  PAW double counting   =     34233.21558925   -35373.42226170
  entropy T*S    EENTRO =         0.00000000
  eigenvalues    EBANDS =     -3492.78906894
  atomic energy  EATOM  =     37271.71165380
  Solvation  Ediel_sol  =         0.00000000
  ---------------------------------------------------
  free energy    TOTEN  =      -218.33750405 eV

  energy without entropy =     -218.33750405  energy(sigma->0) =     -218.33750405


--------------------------------------------------------------------------------------------------------




--------------------------------------- Iteration      1(   9)  ---------------------------------------


    POTLOK:  cpu time    0.1185: real time    0.1189
    SETDIJ:  cpu time    0.0150: real time    0.0150
     EDDAV:  cpu time   20.3363: real time   20.3876
 BZINTS: Fermi energy:  5.875015;276.000000 electrons
         Band energy:***********;  BLOECHL correction: -0.039090
       DOS:  cpu time    0.0502: real time    0.0503
    CHARGE:  cpu time    0.7211: real time    0.7230
    MIXING:  cpu time    0.0029: real time    0.0029
    --------------------------------------------
      LOOP:  cpu time   21.2441: real time   21.2978

 eigenvalue-minimisations  : 12624
 total energy-change (2. order) :-0.4207786E+01  (-0.8259263E+00)
 number of electron     275.9999968 magnetization      50.9237607
 augmentation part      114.1643389 magnetization      37.8364392

 Broyden mixing:
  rms(total) = 0.27345E+01    rms(broyden)= 0.27345E+01
  rms(prec ) = 0.28675E+01
  weight for this iteration     100.00

 eigenvalues of (default mixing * dielectric matrix)
  average eigenvalue GAMMA=   1.1011
  2.8505  0.8037  0.3752  0.3752

 Free energy of the ion-electron system (eV)
  ---------------------------------------------------
  alpha Z        PSCENC =      1362.55286497
  Ewald energy   TEWEN  =    -25513.06237826
  -Hartree energ DENC   =     -9932.40738213
  -exchange      EXHF   =         0.00000000
  -V(xc)+E(xc)   XCENC  =      1362.33257469
  PAW double counting   =     36531.91973603   -37700.98197942
  entropy T*S    EENTRO =         0.00000000
  eigenvalues    EBANDS =     -3604.61037960
  atomic energy  EATOM  =     37271.71165380
  Solvation  Ediel_sol  =         0.00000000
  ---------------------------------------------------
  free energy    TOTEN  =      -222.54528992 eV

  energy without entropy =     -222.54528992  energy(sigma->0) =     -222.54528992


--------------------------------------------------------------------------------------------------------




--------------------------------------- Iteration      1(  10)  ---------------------------------------


    POTLOK:  cpu time    0.1145: real time    0.1149
    SETDIJ:  cpu time    0.0146: real time    0.0146
     EDDAV:  cpu time   20.3213: real time   20.3733
 BZINTS: Fermi energy:  5.957271;276.000000 electrons
         Band energy:***********;  BLOECHL correction: -0.037259
       DOS:  cpu time    0.0515: real time    0.0516
    CHARGE:  cpu time    0.7204: real time    0.7221
    MIXING:  cpu time    0.0031: real time    0.0031
    --------------------------------------------
      LOOP:  cpu time   21.2254: real time   21.2796

 eigenvalue-minimisations  : 12576
 total energy-change (2. order) : 0.3859803E+00  (-0.2480759E+00)
 number of electron     275.9999968 magnetization      50.6142905
 augmentation part      113.4253753 magnetization      37.3096754

 Broyden mixing:
  rms(total) = 0.18612E+01    rms(broyden)= 0.18612E+01
  rms(prec ) = 0.19726E+01
  weight for this iteration     100.00

 eigenvalues of (default mixing * dielectric matrix)
  average eigenvalue GAMMA=   1.0194
  2.6165  0.3738  0.7702  0.6682  0.6682

 Free energy of the ion-electron system (eV)
  ---------------------------------------------------
  alpha Z        PSCENC =      1362.55286497
  Ewald energy   TEWEN  =    -25513.06237826
  -Hartree energ DENC   =     -9948.86739183
  -exchange      EXHF   =         0.00000000
  -V(xc)+E(xc)   XCENC  =      1360.90374065
  PAW double counting   =     36555.07847357   -37727.34235495
  entropy T*S    EENTRO =         0.00000000
  eigenvalues    EBANDS =     -3583.13391762
  atomic energy  EATOM  =     37271.71165380
  Solvation  Ediel_sol  =         0.00000000
  ---------------------------------------------------
  free energy    TOTEN  =      -222.15930967 eV

  energy without entropy =     -222.15930967  energy(sigma->0) =     -222.15930967


--------------------------------------------------------------------------------------------------------




--------------------------------------- Iteration      1(  11)  ---------------------------------------


    POTLOK:  cpu time    0.1153: real time    0.1158
    SETDIJ:  cpu time    0.0146: real time    0.0147
     EDDAV:  cpu time   21.5252: real time   21.5894
 BZINTS: Fermi energy:  6.019140;276.000000 electrons
         Band energy:***********;  BLOECHL correction: -0.034008
       DOS:  cpu time    0.0519: real time    0.0520
    CHARGE:  cpu time    0.7154: real time    0.7173
    MIXING:  cpu time    0.0029: real time    0.0030
    --------------------------------------------
      LOOP:  cpu time   22.4253: real time   22.4920

 eigenvalue-minimisations  : 14292
 total energy-change (2. order) : 0.5704031E+00  (-0.2361346E-01)
 number of electron     275.9999968 magnetization      49.3113367
 augmentation part      113.0019404 magnetization      35.6185551

 Broyden mixing:
  rms(total) = 0.12154E+01    rms(broyden)= 0.12154E+01
  rms(prec ) = 0.12889E+01
  weight for this iteration     100.00

 eigenvalues of (default mixing * dielectric matrix)
  average eigenvalue GAMMA=   1.0453
  2.5835  0.9716  0.9716  0.3787  0.7992  0.5674

 Free energy of the ion-electron system (eV)
  ---------------------------------------------------
  alpha Z        PSCENC =      1362.55286497
  Ewald energy   TEWEN  =    -25513.06237826
  -Hartree energ DENC   =     -9960.06201462
  -exchange      EXHF   =         0.00000000
  -V(xc)+E(xc)   XCENC  =      1360.22566205
  PAW double counting   =     36384.18383474   -37554.43549706
  entropy T*S    EENTRO =         0.00000000
  eigenvalues    EBANDS =     -3572.70303217
  atomic energy  EATOM  =     37271.71165380
  Solvation  Ediel_sol  =         0.00000000
  ---------------------------------------------------
  free energy    TOTEN  =      -221.58890655 eV

  energy without entropy =     -221.58890655  energy(sigma->0) =     -221.58890655


--------------------------------------------------------------------------------------------------------




--------------------------------------- Iteration      1(  12)  ---------------------------------------


    POTLOK:  cpu time    0.1121: real time    0.1128
    SETDIJ:  cpu time    0.0145: real time    0.0145
     EDDAV:  cpu time   23.7699: real time   23.8318
 BZINTS: Fermi energy:  6.079249;276.000000 electrons
         Band energy:***********;  BLOECHL correction: -0.033368
       DOS:  cpu time    0.0498: real time    0.0499
    CHARGE:  cpu time    0.7198: real time    0.7217
    MIXING:  cpu time    0.0031: real time    0.0031
    --------------------------------------------
      LOOP:  cpu time   24.6692: real time   24.7338

 eigenvalue-minimisations  : 15264
 total energy-change (2. order) : 0.2007047E+00  (-0.1945004E-01)
 number of electron     275.9999968 magnetization      46.8769995
 augmentation part      112.6828807 magnetization      33.0835528

 Broyden mixing:
  rms(total) = 0.84570E+00    rms(broyden)= 0.84570E+00
  rms(prec ) = 0.88698E+00
  weight for this iteration     100.00

 eigenvalues of (default mixing * dielectric matrix)
  average eigenvalue GAMMA=   1.0966
  2.1206  1.7211  1.4347  0.3773  0.7511  0.6356  0.6356

 Free energy of the ion-electron system (eV)
  ---------------------------------------------------
  alpha Z        PSCENC =      1362.55286497
  Ewald energy   TEWEN  =    -25513.06237826
  -Hartree energ DENC   =     -9973.17397629
  -exchange      EXHF   =         0.00000000
  -V(xc)+E(xc)   XCENC  =      1359.59621714
  PAW double counting   =     36269.32357923   -37438.54533936
  entropy T*S    EENTRO =         0.00000000
  eigenvalues    EBANDS =     -3559.79082309
  atomic energy  EATOM  =     37271.71165380
  Solvation  Ediel_sol  =         0.00000000
  ---------------------------------------------------
  free energy    TOTEN  =      -221.38820185 eV

  energy without entropy =     -221.38820185  energy(sigma->0) =     -221.38820185


--------------------------------------------------------------------------------------------------------




--------------------------------------- Iteration      1(  13)  ---------------------------------------


    POTLOK:  cpu time    0.1152: real time    0.1155
    SETDIJ:  cpu time    0.0147: real time    0.0147
     EDDAV:  cpu time   21.9673: real time   22.0229
 BZINTS: Fermi energy:  6.139698;276.000000 electrons
         Band energy:***********;  BLOECHL correction: -0.034440
       DOS:  cpu time    0.0527: real time    0.0528
    CHARGE:  cpu time    0.7199: real time    0.7216
    MIXING:  cpu time    0.0035: real time    0.0035
    --------------------------------------------
      LOOP:  cpu time   22.8732: real time   22.9310

 eigenvalue-minimisations  : 13908
 total energy-change (2. order) : 0.4076122E-02  (-0.1128197E-01)
 number of electron     275.9999968 magnetization      43.9704045
 augmentation part      112.4080239 magnetization      30.4193721

 Broyden mixing:
  rms(total) = 0.46506E+00    rms(broyden)= 0.46506E+00
  rms(prec ) = 0.48828E+00
  weight for this iteration     100.00

 eigenvalues of (default mixing * dielectric matrix)
  average eigenvalue GAMMA=   1.3946
  3.4354  3.4354  0.3777  0.9299  0.9299  0.7236  0.7236  0.6011

 Free energy of the ion-electron system (eV)
  ---------------------------------------------------
  alpha Z        PSCENC =      1362.55286497
  Ewald energy   TEWEN  =    -25513.06237826
  -Hartree energ DENC   =     -9991.31449259
  -exchange      EXHF   =         0.00000000
  -V(xc)+E(xc)   XCENC  =      1358.77581350
  PAW double counting   =     36039.83898628   -37206.03820065
  entropy T*S    EENTRO =         0.00000000
  eigenvalues    EBANDS =     -3543.84837278
  atomic energy  EATOM  =     37271.71165380
  Solvation  Ediel_sol  =         0.00000000
  ---------------------------------------------------
  free energy    TOTEN  =      -221.38412573 eV

  energy without entropy =     -221.38412573  energy(sigma->0) =     -221.38412573


--------------------------------------------------------------------------------------------------------




--------------------------------------- Iteration      1(  14)  ---------------------------------------


    POTLOK:  cpu time    0.1157: real time    0.1164
    SETDIJ:  cpu time    0.0148: real time    0.0148
     EDDAV:  cpu time   23.3849: real time   23.4439
 BZINTS: Fermi energy:  6.172333;276.000000 electrons
         Band energy:***********;  BLOECHL correction: -0.032767
       DOS:  cpu time    0.0505: real time    0.0506
    CHARGE:  cpu time    0.7213: real time    0.7232
    MIXING:  cpu time    0.0034: real time    0.0034
    --------------------------------------------
      LOOP:  cpu time   24.2904: real time   24.3522

 eigenvalue-minimisations  : 15060
 total energy-change (2. order) :-0.4567024E-01  (-0.1566766E-01)
 number of electron     275.9999968 magnetization      43.0600495
 augmentation part      112.2221881 magnetization      29.8932617

 Broyden mixing:
  rms(total) = 0.17855E+00    rms(broyden)= 0.17854E+00
  rms(prec ) = 0.18589E+00
  weight for this iteration     100.00

 eigenvalues of (default mixing * dielectric matrix)
  average eigenvalue GAMMA=   1.5069
  5.3582  2.7764  1.2325  0.3776  0.8429  0.8429  0.8780  0.6267  0.6267

 Free energy of the ion-electron system (eV)
  ---------------------------------------------------
  alpha Z        PSCENC =      1362.55286497
  Ewald energy   TEWEN  =    -25513.06237826
  -Hartree energ DENC   =    -10004.02396333
  -exchange      EXHF   =         0.00000000
  -V(xc)+E(xc)   XCENC  =      1357.68352898
  PAW double counting   =     35838.91483835   -37002.09954070
  entropy T*S    EENTRO =         0.00000000
  eigenvalues    EBANDS =     -3533.10679979
  atomic energy  EATOM  =     37271.71165380
  Solvation  Ediel_sol  =         0.00000000
  ---------------------------------------------------
  free energy    TOTEN  =      -221.42979597 eV

  energy without entropy =     -221.42979597  energy(sigma->0) =     -221.42979597


--------------------------------------------------------------------------------------------------------




--------------------------------------- Iteration      1(  15)  ---------------------------------------


    POTLOK:  cpu time    0.1141: real time    0.1151
    SETDIJ:  cpu time    0.0147: real time    0.0147
     EDDAV:  cpu time   19.4023: real time   19.4511
 BZINTS: Fermi energy:  6.157387;276.000000 electrons
         Band energy:***********;  BLOECHL correction: -0.032983
       DOS:  cpu time    0.0511: real time    0.0512
    CHARGE:  cpu time    0.7140: real time    0.7159
    MIXING:  cpu time    0.0035: real time    0.0035
    --------------------------------------------
      LOOP:  cpu time   20.2996: real time   20.3514

 eigenvalue-minimisations  : 12456
 total energy-change (2. order) :-0.1868945E-01  (-0.6371470E-02)
 number of electron     275.9999968 magnetization      42.6221416
 augmentation part      112.2776702 magnetization      29.6320497

 Broyden mixing:
  rms(total) = 0.14328E+00    rms(broyden)= 0.14327E+00
  rms(prec ) = 0.15183E+00
  weight for this iteration     100.00

 eigenvalues of (default mixing * dielectric matrix)
  average eigenvalue GAMMA=   1.5457
  6.1150  2.8492  1.3605  1.0742  0.3776  0.8485  0.8485  0.6938  0.6938  0.5957

 Free energy of the ion-electron system (eV)
  ---------------------------------------------------
  alpha Z        PSCENC =      1362.55286497
  Ewald energy   TEWEN  =    -25513.06237826
  -Hartree energ DENC   =    -10002.54998808
  -exchange      EXHF   =         0.00000000
  -V(xc)+E(xc)   XCENC  =      1357.18863644
  PAW double counting   =     35826.62270782   -36989.43941009
  entropy T*S    EENTRO =         0.00000000
  eigenvalues    EBANDS =     -3534.47257204
  atomic energy  EATOM  =     37271.71165380
  Solvation  Ediel_sol  =         0.00000000
  ---------------------------------------------------
  free energy    TOTEN  =      -221.44848542 eV

  energy without entropy =     -221.44848542  energy(sigma->0) =     -221.44848542


--------------------------------------------------------------------------------------------------------




--------------------------------------- Iteration      1(  16)  ---------------------------------------


    POTLOK:  cpu time    0.1128: real time    0.1132
    SETDIJ:  cpu time    0.0145: real time    0.0145
     EDDAV:  cpu time   22.3383: real time   22.3949
 BZINTS: Fermi energy:  6.179262;276.000000 electrons
         Band energy:***********;  BLOECHL correction: -0.032850
       DOS:  cpu time    0.0513: real time    0.0515
    CHARGE:  cpu time    0.7196: real time    0.7213
    MIXING:  cpu time    0.0040: real time    0.0040
    --------------------------------------------
      LOOP:  cpu time   23.2406: real time   23.2994

 eigenvalue-minimisations  : 14340
 total energy-change (2. order) : 0.5218208E-02  (-0.9496813E-03)
 number of electron     275.9999968 magnetization      42.4887784
 augmentation part      112.1845497 magnetization      29.4962773

 Broyden mixing:
  rms(total) = 0.35863E-01    rms(broyden)= 0.35859E-01
  rms(prec ) = 0.37433E-01
  weight for this iteration     100.00

 eigenvalues of (default mixing * dielectric matrix)
  average eigenvalue GAMMA=   1.5357
  6.2990  2.7872  1.3171  1.3171  1.1052  0.3776  0.8102  0.8102  0.7306  0.7306
  0.6083

 Free energy of the ion-electron system (eV)
  ---------------------------------------------------
  alpha Z        PSCENC =      1362.55286497
  Ewald energy   TEWEN  =    -25513.06237826
  -Hartree energ DENC   =    -10007.27637049
  -exchange      EXHF   =         0.00000000
  -V(xc)+E(xc)   XCENC  =      1357.08008111
  PAW double counting   =     35784.58546678   -36947.30910267
  entropy T*S    EENTRO =         0.00000000
  eigenvalues    EBANDS =     -3529.72548245
  atomic energy  EATOM  =     37271.71165380
  Solvation  Ediel_sol  =         0.00000000
  ---------------------------------------------------
  free energy    TOTEN  =      -221.44326721 eV

  energy without entropy =     -221.44326721  energy(sigma->0) =     -221.44326721


--------------------------------------------------------------------------------------------------------




--------------------------------------- Iteration      1(  17)  ---------------------------------------


    POTLOK:  cpu time    0.1146: real time    0.1154
    SETDIJ:  cpu time    0.0146: real time    0.0147
     EDDAV:  cpu time   20.0695: real time   20.1201
 BZINTS: Fermi energy:  6.180243;276.000000 electrons
         Band energy:***********;  BLOECHL correction: -0.032797
       DOS:  cpu time    0.0501: real time    0.0502
    CHARGE:  cpu time    0.7183: real time    0.7200
    MIXING:  cpu time    0.0037: real time    0.0037
    --------------------------------------------
      LOOP:  cpu time   20.9707: real time   21.0241

 eigenvalue-minimisations  : 12348
 total energy-change (2. order) :-0.6860845E-03  (-0.4738302E-03)
 number of electron     275.9999968 magnetization      42.3934835
 augmentation part      112.1809640 magnetization      29.4145237

 Broyden mixing:
  rms(total) = 0.18689E-01    rms(broyden)= 0.18688E-01
  rms(prec ) = 0.19267E-01
  weight for this iteration     100.00

 eigenvalues of (default mixing * dielectric matrix)
  average eigenvalue GAMMA=   1.5599
  6.4962  2.7663  2.4526  1.0750  1.0750  0.3776  0.8903  0.8903  0.7188  0.7188
  0.6037  0.6536

 Free energy of the ion-electron system (eV)
  ---------------------------------------------------
  alpha Z        PSCENC =      1362.55286497
  Ewald energy   TEWEN  =    -25513.06237826
  -Hartree energ DENC   =    -10006.97409585
  -exchange      EXHF   =         0.00000000
  -V(xc)+E(xc)   XCENC  =      1357.01728391
  PAW double counting   =     35804.63163459   -36967.91358027
  entropy T*S    EENTRO =         0.00000000
  eigenvalues    EBANDS =     -3529.40733618
  atomic energy  EATOM  =     37271.71165380
  Solvation  Ediel_sol  =         0.00000000
  ---------------------------------------------------
  free energy    TOTEN  =      -221.44395330 eV

  energy without entropy =     -221.44395330  energy(sigma->0) =     -221.44395330


--------------------------------------------------------------------------------------------------------




--------------------------------------- Iteration      1(  18)  ---------------------------------------


    POTLOK:  cpu time    0.1136: real time    0.1147
    SETDIJ:  cpu time    0.0148: real time    0.0148
     EDDAV:  cpu time   22.3069: real time   22.3632
 BZINTS: Fermi energy:  6.180584;276.000000 electrons
         Band energy:***********;  BLOECHL correction: -0.032922
       DOS:  cpu time    0.0500: real time    0.0502
    CHARGE:  cpu time    0.7197: real time    0.7216
    MIXING:  cpu time    0.0043: real time    0.0043
    --------------------------------------------
      LOOP:  cpu time   23.2093: real time   23.2687

 eigenvalue-minimisations  : 14148
 total energy-change (2. order) :-0.2400003E-03  (-0.2214982E-04)
 number of electron     275.9999968 magnetization      42.3411099
 augmentation part      112.1765687 magnetization      29.3798147

 Broyden mixing:
  rms(total) = 0.89811E-02    rms(broyden)= 0.89803E-02
  rms(prec ) = 0.93495E-02
  weight for this iteration     100.00

 eigenvalues of (default mixing * dielectric matrix)
  average eigenvalue GAMMA=   1.5310
  6.6296  2.8415  2.4454  1.1513  1.1513  0.9572  0.9572  0.3776  0.7390  0.7390
  0.6909  0.6114  0.6114

 Free energy of the ion-electron system (eV)
  ---------------------------------------------------
  alpha Z        PSCENC =      1362.55286497
  Ewald energy   TEWEN  =    -25513.06237826
  -Hartree energ DENC   =    -10007.23860281
  -exchange      EXHF   =         0.00000000
  -V(xc)+E(xc)   XCENC  =      1356.96985301
  PAW double counting   =     35802.99854133   -36966.32799972
  entropy T*S    EENTRO =         0.00000000
  eigenvalues    EBANDS =     -3529.04812562
  atomic energy  EATOM  =     37271.71165380
  Solvation  Ediel_sol  =         0.00000000
  ---------------------------------------------------
  free energy    TOTEN  =      -221.44419330 eV

  energy without entropy =     -221.44419330  energy(sigma->0) =     -221.44419330


--------------------------------------------------------------------------------------------------------




--------------------------------------- Iteration      1(  19)  ---------------------------------------


    POTLOK:  cpu time    0.1155: real time    0.1159
    SETDIJ:  cpu time    0.0146: real time    0.0147
     EDDAV:  cpu time   21.7148: real time   21.7698
 BZINTS: Fermi energy:  6.181606;276.000000 electrons
         Band energy:***********;  BLOECHL correction: -0.032982
       DOS:  cpu time    0.0499: real time    0.0501
    CHARGE:  cpu time    0.7095: real time    0.7112
    MIXING:  cpu time    0.0040: real time    0.0040
    --------------------------------------------
      LOOP:  cpu time   22.6084: real time   22.6655

 eigenvalue-minimisations  : 13704
 total energy-change (2. order) :-0.5650060E-04  (-0.9611799E-05)
 number of electron     275.9999968 magnetization      42.3310193
 augmentation part      112.1720020 magnetization      29.3781138

 Broyden mixing:
  rms(total) = 0.18118E-02    rms(broyden)= 0.18106E-02
  rms(prec ) = 0.19317E-02
  weight for this iteration     100.00

 eigenvalues of (default mixing * dielectric matrix)
  average eigenvalue GAMMA=   1.5149
  6.7003  2.8520  2.4175  1.3020  1.3020  0.9924  0.9924  0.3776  0.7733  0.7733
  0.7498  0.7498  0.6132  0.6132

 Free energy of the ion-electron system (eV)
  ---------------------------------------------------
  alpha Z        PSCENC =      1362.55286497
  Ewald energy   TEWEN  =    -25513.06237826
  -Hartree energ DENC   =    -10007.59461492
  -exchange      EXHF   =         0.00000000
  -V(xc)+E(xc)   XCENC  =      1356.94938291
  PAW double counting   =     35798.45140363   -36961.72633198
  entropy T*S    EENTRO =         0.00000000
  eigenvalues    EBANDS =     -3528.72622994
  atomic energy  EATOM  =     37271.71165380
  Solvation  Ediel_sol  =         0.00000000
  ---------------------------------------------------
  free energy    TOTEN  =      -221.44424980 eV

  energy without entropy =     -221.44424980  energy(sigma->0) =     -221.44424980


--------------------------------------------------------------------------------------------------------




--------------------------------------- Iteration      1(  20)  ---------------------------------------


    POTLOK:  cpu time    0.1111: real time    0.1116
    SETDIJ:  cpu time    0.0146: real time    0.0146
     EDDAV:  cpu time   19.4026: real time   19.4515
 BZINTS: Fermi energy:  6.181967;276.000000 electrons
         Band energy:***********;  BLOECHL correction: -0.032990
       DOS:  cpu time    0.0457: real time    0.0458
    CHARGE:  cpu time    0.7129: real time    0.7147
    MIXING:  cpu time    0.0041: real time    0.0041
    --------------------------------------------
      LOOP:  cpu time   20.2910: real time   20.3424

 eigenvalue-minimisations  : 12540
 total energy-change (2. order) :-0.1036484E-04  (-0.2571088E-05)
 number of electron     275.9999968 magnetization      42.3274559
 augmentation part      112.1711579 magnetization      29.3761879

 Broyden mixing:
  rms(total) = 0.92213E-03    rms(broyden)= 0.92183E-03
  rms(prec ) = 0.94134E-03
  weight for this iteration     100.00

 eigenvalues of (default mixing * dielectric matrix)
  average eigenvalue GAMMA=   1.5063
  6.7303  2.9606  2.3996  1.8094  1.0797  1.0797  1.0084  1.0084  0.3776  0.7357
  0.7357  0.6042  0.7300  0.6675  0.6675

 Free energy of the ion-electron system (eV)
  ---------------------------------------------------
  alpha Z        PSCENC =      1362.55286497
  Ewald energy   TEWEN  =    -25513.06237826
  -Hartree energ DENC   =    -10007.68051404
  -exchange      EXHF   =         0.00000000
  -V(xc)+E(xc)   XCENC  =      1356.94503327
  PAW double counting   =     35798.22456411   -36961.50324980
  entropy T*S    EENTRO =         0.00000000
  eigenvalues    EBANDS =     -3528.63223422
  atomic energy  EATOM  =     37271.71165380
  Solvation  Ediel_sol  =         0.00000000
  ---------------------------------------------------
  free energy    TOTEN  =      -221.44426016 eV

  energy without entropy =     -221.44426016  energy(sigma->0) =     -221.44426016


--------------------------------------------------------------------------------------------------------




--------------------------------------- Iteration      1(  21)  ---------------------------------------


    POTLOK:  cpu time    0.1120: real time    0.1129
    SETDIJ:  cpu time    0.0146: real time    0.0146
     EDDAV:  cpu time   20.3367: real time   20.3881
 BZINTS: Fermi energy:  6.182289;276.000000 electrons
         Band energy:***********;  BLOECHL correction: -0.032989
       DOS:  cpu time    0.0509: real time    0.0510
    CHARGE:  cpu time    0.7270: real time    0.7288
    MIXING:  cpu time    0.0048: real time    0.0048
    --------------------------------------------
      LOOP:  cpu time   21.2460: real time   21.3003

 eigenvalue-minimisations  : 12540
 total energy-change (2. order) : 0.5644470E-06  (-0.2138322E-06)
 number of electron     275.9999968 magnetization      42.3293750
 augmentation part      112.1700986 magnetization      29.3780055

 Broyden mixing:
  rms(total) = 0.11409E-02    rms(broyden)= 0.11409E-02
  rms(prec ) = 0.12071E-02
  weight for this iteration     100.00

 eigenvalues of (default mixing * dielectric matrix)
  average eigenvalue GAMMA=   1.5034
  6.7343  3.0173  2.3935  2.2356  1.1932  1.1932  0.9953  0.9953  0.3776  0.7788
  0.7788  0.7367  0.7367  0.6600  0.6139  0.6139

 Free energy of the ion-electron system (eV)
  ---------------------------------------------------
  alpha Z        PSCENC =      1362.55286497
  Ewald energy   TEWEN  =    -25513.06237826
  -Hartree energ DENC   =    -10007.74916335
  -exchange      EXHF   =         0.00000000
  -V(xc)+E(xc)   XCENC  =      1356.94547751
  PAW double counting   =     35797.82444057   -36961.11030936
  entropy T*S    EENTRO =         0.00000000
  eigenvalues    EBANDS =     -3528.55684547
  atomic energy  EATOM  =     37271.71165380
  Solvation  Ediel_sol  =         0.00000000
  ---------------------------------------------------
  free energy    TOTEN  =      -221.44425960 eV

  energy without entropy =     -221.44425960  energy(sigma->0) =     -221.44425960


--------------------------------------------------------------------------------------------------------




--------------------------------------- Iteration      1(  22)  ---------------------------------------


    POTLOK:  cpu time    0.1160: real time    0.1164
    SETDIJ:  cpu time    0.0147: real time    0.0147
     EDDAV:  cpu time   18.0313: real time   18.0770
 BZINTS: Fermi energy:  6.182147;276.000000 electrons
         Band energy:***********;  BLOECHL correction: -0.032991
       DOS:  cpu time    0.0513: real time    0.0514
    CHARGE:  cpu time    0.7221: real time    0.7239
    MIXING:  cpu time    0.0046: real time    0.0046
    --------------------------------------------
      LOOP:  cpu time   18.9400: real time   18.9881

 eigenvalue-minimisations  : 10728
 total energy-change (2. order) :-0.1208995E-05  (-0.1101587E-06)
 number of electron     275.9999968 magnetization      42.3317009
 augmentation part      112.1707426 magnetization      29.3804294

 Broyden mixing:
  rms(total) = 0.55634E-03    rms(broyden)= 0.55634E-03
  rms(prec ) = 0.58473E-03
  weight for this iteration     100.00

 eigenvalues of (default mixing * dielectric matrix)
  average eigenvalue GAMMA=   1.4860
  6.7176  2.9943  2.6241  2.1857  1.2348  1.2348  1.0209  1.0209  0.3776  0.8772
  0.8772  0.7378  0.7378  0.7562  0.6077  0.6285  0.6285

 Free energy of the ion-electron system (eV)
  ---------------------------------------------------
  alpha Z        PSCENC =      1362.55286497
  Ewald energy   TEWEN  =    -25513.06237826
  -Hartree energ DENC   =    -10007.71714747
  -exchange      EXHF   =         0.00000000
  -V(xc)+E(xc)   XCENC  =      1356.94571315
  PAW double counting   =     35798.08356925   -36961.37201035
  entropy T*S    EENTRO =         0.00000000
  eigenvalues    EBANDS =     -3528.58652590
  atomic energy  EATOM  =     37271.71165380
  Solvation  Ediel_sol  =         0.00000000
  ---------------------------------------------------
  free energy    TOTEN  =      -221.44426081 eV

  energy without entropy =     -221.44426081  energy(sigma->0) =     -221.44426081


--------------------------------------------------------------------------------------------------------




--------------------------------------- Iteration      1(  23)  ---------------------------------------


    POTLOK:  cpu time    0.1146: real time    0.1150
    SETDIJ:  cpu time    0.0146: real time    0.0146
     EDDAV:  cpu time   16.7943: real time   16.8367
 BZINTS: Fermi energy:  6.182060;276.000000 electrons
         Band energy:***********;  BLOECHL correction: -0.032990
       DOS:  cpu time    0.0503: real time    0.0505
    CHARGE:  cpu time    0.7208: real time    0.7227
    MIXING:  cpu time    0.0047: real time    0.0047
    --------------------------------------------
      LOOP:  cpu time   17.6993: real time   17.7441

 eigenvalue-minimisations  :  9732
 total energy-change (2. order) : 0.4367394E-06  (-0.2980516E-07)
 number of electron     275.9999968 magnetization      42.3322615
 augmentation part      112.1711198 magnetization      29.3808079

 Broyden mixing:
  rms(total) = 0.90879E-04    rms(broyden)= 0.90853E-04
  rms(prec ) = 0.93785E-04
  weight for this iteration     100.00

 eigenvalues of (default mixing * dielectric matrix)
  average eigenvalue GAMMA=   1.4858
  6.7132  3.0142  2.7113  2.2607  1.4199  1.4199  0.3776  1.0257  1.0257  0.9545
  0.9545  0.7393  0.7393  0.8011  0.6758  0.6758  0.6149  0.6207

 Free energy of the ion-electron system (eV)
  ---------------------------------------------------
  alpha Z        PSCENC =      1362.55286497
  Ewald energy   TEWEN  =    -25513.06237826
  -Hartree energ DENC   =    -10007.69395532
  -exchange      EXHF   =         0.00000000
  -V(xc)+E(xc)   XCENC  =      1356.94650148
  PAW double counting   =     35798.32430231   -36961.61598251
  entropy T*S    EENTRO =         0.00000000
  eigenvalues    EBANDS =     -3528.60726684
  atomic energy  EATOM  =     37271.71165380
  Solvation  Ediel_sol  =         0.00000000
  ---------------------------------------------------
  free energy    TOTEN  =      -221.44426037 eV

  energy without entropy =     -221.44426037  energy(sigma->0) =     -221.44426037


--------------------------------------------------------------------------------------------------------




--------------------------------------- Iteration      1(  24)  ---------------------------------------


    POTLOK:  cpu time    0.1146: real time    0.1150
    SETDIJ:  cpu time    0.0146: real time    0.0146
     EDDAV:  cpu time   13.0409: real time   13.0746
 BZINTS: Fermi energy:  6.182064;276.000000 electrons
         Band energy:***********;  BLOECHL correction: -0.032990
       DOS:  cpu time    0.0476: real time    0.0478
    CHARGE:  cpu time    0.7247: real time    0.7266
    MIXING:  cpu time    0.0056: real time    0.0056
    --------------------------------------------
      LOOP:  cpu time   13.9481: real time   13.9842

 eigenvalue-minimisations  :  6624
 total energy-change (2. order) : 0.6828486E-06  (-0.9260241E-08)
 number of electron     275.9999968 magnetization      42.3323304
 augmentation part      112.1710963 magnetization      29.3807782

 Broyden mixing:
  rms(total) = 0.43314E-04    rms(broyden)= 0.43305E-04
  rms(prec ) = 0.45207E-04
  weight for this iteration     100.00

 eigenvalues of (default mixing * dielectric matrix)
[...]
 -0.000  -0.002   0.000   0.000  -0.001   0.000   0.000   0.000  -0.006  -0.000   0.000   0.000  -0.000   0.009  -0.000  -0.000
 total augmentation occupancy for first ion, spin component:           2
 -0.003  -0.000  -0.000  -0.010  -0.000   0.000   0.002   0.001  -0.000   0.000   0.000  -0.003  -0.002   0.000  -0.000  -0.000
 -0.000  -0.003   0.000   0.000  -0.010   0.000   0.000  -0.000  -0.001   0.000   0.000  -0.000   0.000   0.002   0.000  -0.000
  0.000   0.000  -0.003  -0.000   0.000  -0.010   0.000  -0.000   0.000   0.001  -0.002  -0.000   0.000  -0.000  -0.002   0.003
 -0.010   0.000  -0.000   0.021  -0.000   0.000  -0.085  -0.050  -0.000   0.002   0.013   0.049   0.032   0.000  -0.001  -0.008
  0.000  -0.010   0.000   0.000   0.017   0.000  -0.000   0.000   0.076   0.000  -0.000   0.000  -0.000  -0.043   0.000   0.000
  0.000   0.000  -0.010   0.000   0.000   0.021   0.013  -0.002  -0.000  -0.050   0.085  -0.008   0.001   0.000   0.032  -0.049
  0.002  -0.000   0.000  -0.085   0.000   0.013   4.294   0.576   0.000  -0.179  -0.000  -2.428  -0.470  -0.000   0.166   0.002
  0.001  -0.000  -0.000  -0.050   0.000  -0.002   0.576   5.020   0.000  -0.000  -0.179  -0.469  -3.024  -0.000   0.003   0.166
 -0.000  -0.001   0.000  -0.000   0.076  -0.000   0.000   0.000   4.387   0.000  -0.000   0.000  -0.000  -2.382  -0.000   0.000
  0.000   0.000   0.001   0.002   0.000  -0.050  -0.179   0.000   0.000   5.020  -0.576   0.166  -0.003  -0.000  -3.024   0.469
  0.000   0.000  -0.002   0.013  -0.000   0.085  -0.000  -0.179  -0.000  -0.576   4.294  -0.002   0.166   0.000   0.470  -2.428
 -0.003   0.000  -0.000   0.049   0.000  -0.008  -2.428  -0.469   0.000   0.166  -0.002   1.294   0.332   0.000  -0.129  -0.000
 -0.002   0.000   0.000   0.032  -0.000   0.001  -0.470  -3.024  -0.000  -0.003   0.166   0.332   1.750   0.000  -0.000  -0.129
  0.000   0.002  -0.000   0.000  -0.043   0.000  -0.000  -0.000  -2.382  -0.000   0.000  -0.000   0.000   1.231   0.000  -0.000
 -0.000  -0.000  -0.002  -0.001  -0.000   0.032   0.166   0.003  -0.000  -3.024   0.470  -0.129  -0.000   0.000   1.750  -0.332
 -0.000  -0.000   0.003  -0.008   0.000  -0.049   0.002   0.166   0.000   0.469  -2.428   0.000  -0.129  -0.000  -0.332   1.294
  0.000   0.000  -0.000  -0.000   0.001   0.000  -0.000   0.000   0.044   0.000  -0.000  -0.000  -0.000  -0.022  -0.000   0.000
  0.000   0.000   0.000  -0.000   0.001  -0.000   0.000  -0.000   0.007   0.000  -0.000   0.000   0.000  -0.005   0.000   0.000


------------------------ aborting loop because EDIFF is reached ----------------------------------------


 


 total charge     
 
# of ion       s       p       d       tot
------------------------------------------
    1        0.284   6.340   5.852  12.476
    2        0.284   6.340   5.854  12.478
    3        0.284   6.340   5.862  12.486
    4        0.284   6.340   5.852  12.475
    5        0.283   6.340   5.854  12.478
    6        0.284   6.340   5.865  12.489
    7        0.284   6.340   5.851  12.474
    8        0.284   6.340   5.853  12.477
    9        0.283   6.340   5.854  12.477
   10        0.283   6.340   5.868  12.492
   11        0.283   6.340   5.865  12.489
   12        0.283   6.340   5.857  12.480
   13        1.567   3.417   0.000   4.984
   14        1.567   3.416   0.000   4.984
   15        1.567   3.417   0.000   4.984
   16        1.567   3.418   0.000   4.985
   17        1.567   3.418   0.000   4.985
   18        1.567   3.417   0.000   4.984
   19        1.567   3.404   0.000   4.971
   20        1.567   3.404   0.000   4.971
   21        1.567   3.405   0.000   4.972
   22        1.567   3.405   0.000   4.972
   23        1.567   3.405   0.000   4.972
   24        1.567   3.405   0.000   4.972
   25        1.568   3.418   0.000   4.986
   26        1.568   3.417   0.000   4.986
   27        1.568   3.419   0.000   4.987
   28        1.568   3.420   0.000   4.988
   29        1.568   3.420   0.000   4.988
   30        1.568   3.419   0.000   4.988
--------------------------------------------------
tot         31.618 137.524  70.288 239.430
 


 magnetization (x)
 
# of ion       s       p       d       tot
------------------------------------------
    1        0.024   0.036   3.140   3.201
    2        0.024   0.036   3.138   3.198
    3        0.025   0.036   3.134   3.195
    4        0.025   0.036   3.140   3.201
    5        0.025   0.036   3.140   3.201
    6        0.025   0.036   3.132   3.193
    7        0.024   0.036   3.125   3.185
    8        0.024   0.036   3.122   3.182
    9        0.025   0.036   3.122   3.183
   10        0.025   0.036   3.116   3.177
   11        0.025   0.036   3.119   3.179
   12        0.025   0.036   3.122   3.183
   13        0.020   0.139   0.000   0.159
   14        0.020   0.139   0.000   0.159
   15        0.020   0.139   0.000   0.159
   16        0.020   0.140   0.000   0.160
   17        0.020   0.140   0.000   0.161
   18        0.020   0.139   0.000   0.160
   19        0.021   0.143   0.000   0.165
   20        0.021   0.143   0.000   0.164
   21        0.021   0.144   0.000   0.165
   22        0.021   0.144   0.000   0.165
   23        0.021   0.144   0.000   0.165
   24        0.021   0.144   0.000   0.165
   25        0.020   0.135   0.000   0.156
   26        0.020   0.135   0.000   0.155
   27        0.020   0.136   0.000   0.157
   28        0.020   0.137   0.000   0.158
   29        0.020   0.137   0.000   0.157
   30        0.020   0.137   0.000   0.157
--------------------------------------------------
tot          0.668   2.947  37.550  41.166
 
    CHARGE:  cpu time    0.7135: real time    0.7154
    FORLOC:  cpu time    0.0140: real time    0.0140
    FORNL :  cpu time    5.1924: real time    5.2055
    STRESS:  cpu time   16.1088: real time   16.1495
    FORCOR:  cpu time    0.1229: real time    0.1232
    FORHAR:  cpu time    0.0233: real time    0.0234
    MIXING:  cpu time    0.0052: real time    0.0052
    OFIELD:  cpu time    0.0001: real time    0.0001

  FORCE on cell =-STRESS in cart. coord.  units (eV):
  Direction    XX          YY          ZZ          XY          YZ          ZX
  --------------------------------------------------------------------------------------
  Alpha Z  1362.55286  1362.55286  1362.55286
  Ewald   -8201.75422 -8201.75360 -9109.63806     0.00000     0.00002    -0.00000
  Hartree  3503.89822  3503.89808  2999.89259    -0.00000     0.00001    -0.00000
  E(xc)   -1615.78616 -1615.78620 -1617.35128    -0.00003     0.00000    -0.00000
  Local    -165.41977  -165.41979  1230.45159    -0.00030    -0.00003     0.00000
  n-local  -743.46190  -742.35336  -744.93534    -4.16482     0.49322     0.11592
  augment  1844.73248  1844.73250  1846.64387     0.00029     0.00000    -0.00000
  Kinetic  4007.06561  4009.16116  4024.91482     7.65394    -1.98772    -5.04494
  Fock        0.00000     0.00000     0.00000     0.00000     0.00000     0.00000
  -------------------------------------------------------------------------------------
  Total      -6.57061    -6.57061    -7.46894     0.00000     0.00000     0.00000
  in kB     -34.85068   -34.85067   -39.61543     0.00000     0.00000     0.00000
  external pressure =      -36.44 kB  Pullay stress =        0.00 kB


 VOLUME and BASIS-vectors are now :
 -----------------------------------------------------------------------------
  energy-cutoff  :      700.00
  volume of cell :      302.07
      direct lattice vectors                 reciprocal lattice vectors
     5.035100000  0.000000000  0.000000000     0.198605787  0.114665118  0.000000000
    -2.517550000  4.360524000  0.000000000     0.000000000  0.229330236  0.000000000
     0.000000000  0.000000000 13.758100000     0.000000000  0.000000000  0.072684455

  length of vectors
     5.035100000  5.035099558 13.758100000     0.229330216  0.229330236  0.072684455


 FORCES acting on ions
    electron-ion (+dipol)            ewald-force                    non-local-force                 convergence-correction
 -----------------------------------------------------------------------------------------------
   0.156E-03 0.366E-03 -.126E+03   -.101E-02 0.523E-03 0.128E+03   -.694E-17 0.130E-17 -.289E+01   -.730E-08 0.404E-08 -.162E-04
   -.402E-03 0.580E-03 0.126E+03   0.101E-02 -.523E-03 -.128E+03   0.130E-17 0.477E-17 0.289E+01   0.959E-08 -.447E-08 0.162E-04
   -.135E-03 0.533E-03 -.126E+03   0.314E-02 -.187E-02 0.128E+03   0.217E-17 0.000E+00 -.289E+01   0.169E-06 -.986E-07 -.858E-05
   -.328E-03 0.645E-03 -.126E+03   -.220E-02 0.121E-02 0.128E+03   0.217E-17 0.651E-17 -.289E+01   -.160E-06 0.915E-07 -.599E-05
   0.816E-04 0.300E-03 0.126E+03   0.220E-02 -.121E-02 -.128E+03   -.867E-17 -.434E-18 0.289E+01   0.162E-06 -.919E-07 0.599E-05
   -.111E-03 0.412E-03 0.126E+03   -.314E-02 0.187E-02 -.128E+03   -.130E-17 -.173E-17 0.289E+01   -.167E-06 0.981E-07 0.858E-05
   0.566E-03 -.105E-02 0.126E+03   0.964E-03 -.523E-03 -.128E+03   -.369E-17 0.173E-17 0.289E+01   0.106E-07 -.754E-08 0.162E-04
   0.104E-02 -.127E-02 -.126E+03   -.964E-03 0.523E-03 0.128E+03   0.434E-17 -.173E-17 -.289E+01   -.549E-08 0.236E-08 -.162E-04
   0.105E-02 -.133E-02 0.126E+03   0.215E-02 -.121E-02 -.128E+03   -.542E-17 0.173E-17 0.289E+01   0.163E-06 -.959E-07 0.599E-05
   0.750E-03 -.110E-02 -.126E+03   0.319E-02 -.187E-02 0.128E+03   0.369E-17 -.130E-17 -.289E+01   0.172E-06 -.992E-07 -.858E-05
   0.856E-03 -.121E-02 0.126E+03   -.319E-02 0.187E-02 -.128E+03   -.260E-17 -.520E-17 0.289E+01   -.167E-06 0.941E-07 0.858E-05
   0.557E-03 -.988E-03 -.126E+03   -.215E-02 0.121E-02 0.128E+03   0.434E-18 0.217E-17 -.289E+01   -.157E-06 0.907E-07 -.599E-05
   -.424E+02 -.134E-02 0.216E-03   0.418E+02 0.106E-02 -.470E-03   0.680E+00 0.435E-17 -.716E-17   -.194E-04 0.392E-07 -.378E-08
   0.424E+02 -.861E-04 -.337E-03   -.418E+02 -.106E-02 0.470E-03   -.680E+00 0.163E-17 0.499E-17   0.194E-04 -.425E-07 0.177E-08
   -.424E+02 -.319E-02 -.584E-02   0.418E+02 0.570E-03 -.997E-03   0.680E+00 -.325E-18 -.325E-17   -.194E-04 -.347E-07 -.229E-05
   -.424E+02 0.239E-02 0.545E-02   0.418E+02 -.163E-02 0.147E-02   0.680E+00 0.184E-17 0.314E-17   -.194E-04 -.929E-08 0.229E-05
   0.424E+02 -.382E-02 -.557E-02   -.418E+02 0.163E-02 -.147E-02   -.680E+00 -.434E-17 0.336E-17   0.194E-04 0.590E-08 -.230E-05
   0.424E+02 0.177E-02 0.572E-02   -.418E+02 -.570E-03 0.997E-03   -.680E+00 -.748E-17 0.336E-17   0.194E-04 0.313E-07 0.229E-05
   0.212E+02 -.367E+02 -.308E-03   -.209E+02 0.362E+02 0.438E-03   -.340E+00 0.589E+00 0.607E-17   0.974E-05 -.168E-04 0.177E-08
   -.212E+02 0.367E+02 0.194E-03   0.209E+02 -.362E+02 -.438E-03   0.340E+00 -.589E+00 0.173E-17   -.974E-05 0.168E-04 -.370E-08
   0.212E+02 -.367E+02 -.554E-02   -.209E+02 0.362E+02 -.150E-02   -.340E+00 0.589E+00 0.867E-18   0.967E-05 -.168E-04 -.230E-05
   0.212E+02 -.367E+02 0.575E-02   -.209E+02 0.362E+02 0.964E-03   -.340E+00 0.589E+00 0.173E-17   0.967E-05 -.168E-04 0.229E-05
   -.212E+02 0.367E+02 -.586E-02   0.209E+02 -.362E+02 -.964E-03   0.340E+00 -.589E+00 -.867E-18   -.967E-05 0.168E-04 -.229E-05
   -.212E+02 0.367E+02 0.542E-02   0.209E+02 -.362E+02 0.150E-02   0.340E+00 -.589E+00 -.434E-17   -.967E-05 0.168E-04 0.229E-05
   0.212E+02 0.367E+02 0.939E-04   -.209E+02 -.362E+02 0.322E-04   -.340E+00 -.589E+00 -.304E-17   0.967E-05 0.167E-04 0.196E-08
   -.212E+02 -.367E+02 0.144E-03   0.209E+02 0.362E+02 -.322E-04   0.340E+00 0.589E+00 0.434E-17   -.966E-05 -.167E-04 0.187E-08
   0.212E+02 0.367E+02 -.409E-02   -.209E+02 -.362E+02 -.303E-02   -.340E+00 -.589E+00 -.564E-17   0.976E-05 0.168E-04 -.229E-05
   -.212E+02 -.367E+02 -.404E-02   0.209E+02 0.362E+02 -.310E-02   0.340E+00 0.589E+00 0.390E-17   -.965E-05 -.168E-04 -.230E-05
   0.212E+02 0.367E+02 0.428E-02   -.209E+02 -.362E+02 0.310E-02   -.340E+00 -.589E+00 -.607E-17   0.965E-05 0.168E-04 0.230E-05
   -.212E+02 -.367E+02 0.433E-02   0.209E+02 0.362E+02 0.303E-02   0.340E+00 0.589E+00 0.564E-17   -.975E-05 -.168E-04 0.230E-05
 -----------------------------------------------------------------------------------------------
   0.150E-01 -.165E-01 -.111E-04   -.995E-13 -.995E-13 -.192E-12   -.999E-15 -.111E-15 -.132E-14   0.390E-07 -.335E-07 -.241E-09
 
 
 POSITION                                       TOTAL-FORCE (eV/Angst)
 -----------------------------------------------------------------------------------
      0.00000      0.00000      4.88853         0.000000     -0.000000     -0.924107
      0.00000      0.00000      8.86957        -0.000000     -0.000000      0.924107
     -0.00000      2.90702      0.30250         0.000000     -0.000000     -0.924107
      2.51755      1.45351      9.47456         0.000000     -0.000000     -0.924107
     -0.00000      2.90702      4.28354        -0.000000     -0.000000      0.924107
      2.51755      1.45351     13.45560        -0.000000     -0.000000      0.924107
      0.00000      0.00000      1.99052        -0.000000     -0.000000      0.924107
      0.00000      0.00000     11.76758         0.000000     -0.000000     -0.924107
     -0.00000      2.90702     11.16259         0.000000     -0.000000      0.924107
     -0.00000      2.90702      7.18155         0.000000     -0.000000     -0.924107
      2.51755      1.45351      6.57655        -0.000000     -0.000000      0.924107
      2.51755      1.45351      2.59551         0.000000     -0.000000     -0.924107
      1.54165      0.00000      3.43953         0.089543     -0.000000      0.000000
      3.49345      0.00000     10.31858        -0.089543     -0.000000      0.000000
      1.54164      2.90702     12.61160         0.089543     -0.000000      0.000000
      4.05920      1.45351      8.02555         0.089543     -0.000000      0.000000
     -1.54165      2.90702      5.73255        -0.089543     -0.000000      0.000000
      0.97591      1.45351      1.14650        -0.089543     -0.000000      0.000000
     -0.77082      1.33511      3.43953        -0.044772      0.077547      0.000000
     -1.74673      3.02542     10.31858         0.044772     -0.077547      0.000000
     -0.77083      4.24212     12.61160        -0.044772      0.077547      0.000000
      1.74673      2.78861      8.02555        -0.044772      0.077547      0.000000
      0.77082      1.57191      5.73255         0.044772     -0.077547      0.000000
      3.28838      0.11840      1.14650         0.044772     -0.077547      0.000000
      1.74673      3.02542      3.43953        -0.044772     -0.077547      0.000000
      0.77082      1.33511     10.31858         0.044772      0.077547      0.000000
     -0.77083      1.57191     12.61160        -0.044772     -0.077547      0.000000
      0.77082      4.24212      5.73255         0.044772      0.077547      0.000000
      1.74673      0.11840      8.02555        -0.044772     -0.077547      0.000000
      3.28838      2.78861      1.14650         0.044772      0.077547      0.000000
 -----------------------------------------------------------------------------------
    total drift:                                0.014975     -0.016524     -0.000011


--------------------------------------------------------------------------------------------------------



  FREE ENERGIE OF THE ION-ELECTRON SYSTEM (eV)
  ---------------------------------------------------
  free  energy   TOTEN  =      -221.44425959 eV

  energy  without entropy=     -221.44425959  energy(sigma->0) =     -221.44425959
 


--------------------------------------------------------------------------------------------------------


    POTLOK:  cpu time    0.1280: real time    0.1283


--------------------------------------------------------------------------------------------------------


     LOOP+:  cpu time  538.4674: real time  539.8555
    4ORBIT:  cpu time    0.0000: real time    0.0000
 


 total charge     
 
# of ion       s       p       d       tot
------------------------------------------
    1        0.284   6.340   5.852  12.476
    2        0.284   6.340   5.854  12.478
    3        0.284   6.340   5.862  12.486
    4        0.284   6.340   5.852  12.475
    5        0.283   6.340   5.854  12.478
    6        0.284   6.340   5.865  12.489
    7        0.284   6.340   5.851  12.474
    8        0.284   6.340   5.853  12.477
    9        0.283   6.340   5.854  12.477
   10        0.283   6.340   5.868  12.492
   11        0.283   6.340   5.865  12.489
   12        0.283   6.340   5.857  12.480
   13        1.567   3.417   0.000   4.984
   14        1.567   3.416   0.000   4.984
   15        1.567   3.417   0.000   4.984
   16        1.567   3.418   0.000   4.985
   17        1.567   3.418   0.000   4.985
   18        1.567   3.417   0.000   4.984
   19        1.567   3.404   0.000   4.971
   20        1.567   3.404   0.000   4.971
   21        1.567   3.405   0.000   4.972
   22        1.567   3.405   0.000   4.972
   23        1.567   3.405   0.000   4.972
   24        1.567   3.405   0.000   4.972
   25        1.568   3.418   0.000   4.986
   26        1.568   3.417   0.000   4.986
   27        1.568   3.419   0.000   4.987
   28        1.568   3.420   0.000   4.988
   29        1.568   3.420   0.000   4.988
   30        1.568   3.419   0.000   4.988
--------------------------------------------------
tot         31.618 137.524  70.288 239.430
 


 magnetization (x)
 
# of ion       s       p       d       tot
------------------------------------------
    1        0.024   0.036   3.140   3.201
    2        0.024   0.036   3.138   3.198
    3        0.025   0.036   3.134   3.195
    4        0.025   0.036   3.140   3.201
    5        0.025   0.036   3.140   3.201
    6        0.025   0.036   3.132   3.193
    7        0.024   0.036   3.125   3.185
    8        0.024   0.036   3.122   3.182
    9        0.025   0.036   3.122   3.183
   10        0.025   0.036   3.116   3.177
   11        0.025   0.036   3.119   3.179
   12        0.025   0.036   3.122   3.183
   13        0.020   0.139   0.000   0.159
   14        0.020   0.139   0.000   0.159
   15        0.020   0.139   0.000   0.159
   16        0.020   0.140   0.000   0.160
   17        0.020   0.140   0.000   0.161
   18        0.020   0.139   0.000   0.160
   19        0.021   0.143   0.000   0.165
   20        0.021   0.143   0.000   0.164
   21        0.021   0.144   0.000   0.165
   22        0.021   0.144   0.000   0.165
   23        0.021   0.144   0.000   0.165
   24        0.021   0.144   0.000   0.165
   25        0.020   0.135   0.000   0.156
   26        0.020   0.135   0.000   0.155
   27        0.020   0.136   0.000   0.157
   28        0.020   0.137   0.000   0.158
   29        0.020   0.137   0.000   0.157
   30        0.020   0.137   0.000   0.157
--------------------------------------------------
tot          0.668   2.947  37.550  41.166
 
 BZINTS: Fermi energy:  6.182058;276.000000 electrons
         Band energy:***********;  BLOECHL correction: -0.032990

 total amount of memory used by VASP MPI-rank0   110277. kBytes
=======================================================================

   base      :      30000. kBytes
   nonlr-proj:      11455. kBytes
   fftplans  :       5157. kBytes
   grid      :      12969. kBytes
   one-center:        248. kBytes
   wavefun   :      50448. kBytes
 
  
  
 General timing and accounting informations for this job:
 ========================================================
  
                  Total CPU time used (sec):      547.400
                            User time (sec):      545.910
                          System time (sec):        1.489
                         Elapsed time (sec):      548.855
  
                   Maximum memory used (kb):      161696.
                   Average memory used (kb):           0.
  
                          Minor page faults:        69896
                          Major page faults:            0
                 Voluntary context switches:          207
