       N       E                     dE             d eps       ncg     rms          rms(c)
DAV:   1     0.145554476741E+03    0.14555E+03   -0.10187E+04109284   0.263E+03
DAV:   2    -0.517888261808E+01   -0.15073E+03   -0.13197E+03 97272   0.299E+02
DAV:   3    -0.199355403016E+02   -0.14757E+02   -0.14149E+02100884   0.989E+01
DAV:   4    -0.206978912813E+02   -0.76235E+00   -0.74241E+00141304   0.201E+01
DAV:   5    -0.207224435108E+02   -0.24552E-01   -0.24430E-01120192   0.280E+00    0.180E+01
RMM:   6    -0.257144536993E+02   -0.49920E+01   -0.38744E+01102822   0.693E+01    0.327E+01
RMM:   7    -0.209998325713E+02    0.47146E+01   -0.15041E+01103665   0.336E+01    0.114E+01
RMM:   8    -0.208938254564E+02    0.10601E+00   -0.13367E+00105756   0.113E+01    0.461E+00
RMM:   9    -0.208688923223E+02    0.24933E-01   -0.42491E-01106576   0.643E+00    0.161E+00
RMM:  10    -0.208543904796E+02    0.14502E-01   -0.57689E-02107633   0.201E+00    0.750E-01
RMM:  11    -0.208519001386E+02    0.24903E-02   -0.34772E-02112541   0.143E+00    0.529E-01
RMM:  12    -0.208567438324E+02   -0.48437E-02   -0.12327E-02108844   0.483E-01    0.198E-01
RMM:  13    -0.208571195776E+02   -0.37575E-03   -0.37678E-03 87671   0.316E-01    0.152E-01
RMM:  14    -0.208573795952E+02   -0.26002E-03   -0.24314E-03 82999   0.198E-01    0.203E-01
RMM:  15    -0.208575267870E+02   -0.14719E-03   -0.13787E-03 78261   0.208E-01    0.693E-02
RMM:  16    -0.208575926076E+02   -0.65821E-04   -0.96632E-04 71993   0.134E-01
   1 F= -.20857593E+02 E0= -.20857573E+02  d E =-.208576E+02  mag=     6.9846
