=========================================
SLURM_JOB_ID = 63457029
SLURM_JOB_NODELIST = lnode51
SLURM_GPUS = 
SLURM_CPUS_ON_NODE = 8
SLURM_JOB_PARTITION = lenovo
SLURM_TASK_PID = 964358
CUDA_VISIBLE_DEVICES = 
==========================================
 running on    8 total cores
 distrk:  each k-point on    8 cores,    1 groups
 distr:  one band on    4 cores,    2 groups
 using from now: INCAR     
 vasp.5.4.4.18Apr17-6-g9f103f2a35 (build Apr 28 2018 00:24:27) complex          
  
 POSCAR found type information on POSCAR  Eu S 
 POSCAR found :  2 types and       2 ions
 scaLAPACK will be used

 ----------------------------------------------------------------------------- 
|                                                                             |
|  ADVICE TO THIS USER RUNNING 'VASP/VAMP'   (HEAR YOUR MASTER'S VOICE ...):  |
|                                                                             |
|      You have a (more or less) 'small supercell' and for smaller cells      |
|      it is recommended  to use the reciprocal-space projection scheme!      |
|      The real space optimization is not  efficient for small cells and it   |
|      is also less accurate ...                                              |
|      Therefore set LREAL=.FALSE. in the  INCAR file                         |
|                                                                             |
 ----------------------------------------------------------------------------- 

 LDA part: xc-table for Pade appr. of Perdew
 POSCAR, INCAR and KPOINTS ok, starting setup
 FFT: planning ...
 WAVECAR not read
 entering main loop
       N       E                     dE             d eps       ncg     rms          rms(c)
DAV:   1     0.167860330989E+03    0.16786E+03   -0.10652E+04  1840   0.260E+03
DAV:   2     0.439124490856E+01   -0.16347E+03   -0.14340E+03  1748   0.284E+02
DAV:   3    -0.149743259607E+02   -0.19366E+02   -0.18775E+02  1856   0.107E+02
DAV:   4    -0.159879205022E+02   -0.10136E+01   -0.99845E+00  2612   0.221E+01
DAV:   5    -0.160335309330E+02   -0.45610E-01   -0.45140E-01  2268   0.370E+00    0.132E+01
DAV:   6    -0.202074498846E+02   -0.41739E+01   -0.46475E+01  2312   0.680E+01    0.177E+01
DAV:   7    -0.190861765520E+02    0.11213E+01   -0.28826E+00  1952   0.389E+01    0.656E+00
DAV:   8    -0.187621692415E+02    0.32401E+00   -0.14300E+00  2672   0.142E+01    0.253E+00
DAV:   9    -0.188335980211E+02   -0.71429E-01   -0.13635E+00  2204   0.986E+00    0.333E+00
DAV:  10    -0.187496080409E+02    0.83990E-01   -0.79963E-01  2068   0.737E+00    0.104E+00
DAV:  11    -0.187619122881E+02   -0.12304E-01   -0.19020E-02  2524   0.988E-01    0.539E-01
DAV:  12    -0.187604891246E+02    0.14232E-02   -0.52263E-03  2512   0.689E-01    0.509E-01
DAV:  13    -0.187587918577E+02    0.16973E-02   -0.45312E-03  2400   0.565E-01    0.267E-01
DAV:  14    -0.187585359268E+02    0.25593E-03   -0.13743E-03  2660   0.304E-01    0.157E-01
DAV:  15    -0.187586062631E+02   -0.70336E-04   -0.20476E-03  2096   0.379E-01    0.114E-02
DAV:  16    -0.187586050269E+02    0.12362E-05   -0.91920E-05  2508   0.500E-02    0.961E-03
DAV:  17    -0.187586051909E+02   -0.16397E-06   -0.37510E-06  2436   0.820E-03    0.858E-03
DAV:  18    -0.187586074908E+02   -0.22999E-05   -0.63233E-07  2248   0.549E-03    0.734E-03
DAV:  19    -0.187585980149E+02    0.94759E-05   -0.10899E-06  1892   0.907E-03    0.293E-03
DAV:  20    -0.187585937623E+02    0.42525E-05   -0.35234E-07  1604   0.495E-03    0.148E-03
DAV:  21    -0.187585932093E+02    0.55305E-06   -0.37304E-08   988   0.182E-03    0.123E-03
DAV:  22    -0.187585952750E+02   -0.20657E-05   -0.83768E-08   980   0.289E-03    0.441E-04
DAV:  23    -0.187585953442E+02   -0.69151E-07   -0.78794E-09   916   0.869E-04
   1 F= -.18758595E+02 E0= -.18758595E+02  d E =0.000000E+00  mag=     6.9956
