=========================================
SLURM_JOB_ID = 63457532
SLURM_JOB_NODELIST = lnode53
SLURM_GPUS = 
SLURM_CPUS_ON_NODE = 8
SLURM_JOB_PARTITION = lenovo
SLURM_TASK_PID = 899273
CUDA_VISIBLE_DEVICES = 
==========================================
 running on    8 total cores
 distrk:  each k-point on    8 cores,    1 groups
 distr:  one band on    4 cores,    2 groups
 using from now: INCAR     
 vasp.5.4.4.18Apr17-6-g9f103f2a35 (build Apr 28 2018 00:24:27) complex          
  
 POSCAR found type information on POSCAR  Eu
 POSCAR found :  1 types and       4 ions
 scaLAPACK will be used

 ----------------------------------------------------------------------------- 
|                                                                             |
|  ADVICE TO THIS USER RUNNING 'VASP/VAMP'   (HEAR YOUR MASTER'S VOICE ...):  |
|                                                                             |
|      You have a (more or less) 'small supercell' and for smaller cells      |
|      it is recommended  to use the reciprocal-space projection scheme!      |
|      The real space optimization is not  efficient for small cells and it   |
|      is also less accurate ...                                              |
|      Therefore set LREAL=.FALSE. in the  INCAR file                         |
|                                                                             |
 ----------------------------------------------------------------------------- 

 LDA part: xc-table for Pade appr. of Perdew
 POSCAR, INCAR and KPOINTS ok, starting setup
 FFT: planning ...
 WAVECAR not read
 entering main loop
       N       E                     dE             d eps       ncg     rms          rms(c)
DAV:   1     0.856723367725E+03    0.85672E+03   -0.25355E+04 10284   0.271E+03
DAV:   2     0.201382630813E+03   -0.65534E+03   -0.49485E+03 10976   0.395E+02
DAV:   3    -0.207179559176E+01   -0.20345E+03   -0.19509E+03  8936   0.221E+02
DAV:   4    -0.270466045376E+02   -0.24975E+02   -0.23611E+02 12392   0.686E+01
DAV:   5    -0.295392891800E+02   -0.24927E+01   -0.24123E+01 15476   0.228E+01    0.224E+01
DAV:   6    -0.441989016718E+02   -0.14660E+02   -0.57145E+01 10700   0.706E+01    0.301E+01
DAV:   7    -0.426000258788E+02    0.15989E+01   -0.89406E+00 11044   0.187E+01    0.107E+01
DAV:   8    -0.410230694846E+02    0.15770E+01   -0.33051E+00 11732   0.140E+01    0.340E+00
DAV:   9    -0.410818646089E+02   -0.58795E-01   -0.16858E+00 12032   0.105E+01    0.389E+00
DAV:  10    -0.410571687347E+02    0.24696E-01   -0.31804E-01 13232   0.380E+00    0.128E+00
DAV:  11    -0.411224386590E+02   -0.65270E-01   -0.55775E-02 15288   0.121E+00    0.639E-01
DAV:  12    -0.411586987131E+02   -0.36260E-01   -0.39214E-02 11760   0.968E-01    0.580E-01
DAV:  13    -0.411597437691E+02   -0.10451E-02   -0.13795E-02 12524   0.697E-01    0.185E-01
DAV:  14    -0.411580286206E+02    0.17151E-02   -0.12874E-02 12564   0.365E-01    0.151E-01
DAV:  15    -0.411575796860E+02    0.44893E-03   -0.13331E-03 14060   0.163E-01    0.114E-01
DAV:  16    -0.411571849564E+02    0.39473E-03   -0.92623E-04 13588   0.208E-01    0.472E-02
DAV:  17    -0.411575850223E+02   -0.40007E-03   -0.20315E-04 13860   0.779E-02    0.928E-03
DAV:  18    -0.411577075325E+02   -0.12251E-03   -0.34776E-05 15096   0.272E-02    0.376E-03
DAV:  19    -0.411576917721E+02    0.15760E-04   -0.64220E-06 13456   0.796E-03    0.173E-03
DAV:  20    -0.411577052230E+02   -0.13451E-04   -0.11969E-06 10992   0.363E-03    0.105E-03
DAV:  21    -0.411576987378E+02    0.64852E-05   -0.10908E-07  7152   0.194E-03    0.921E-04
DAV:  22    -0.411576950545E+02    0.36833E-05   -0.35680E-08  4960   0.166E-03    0.416E-04
DAV:  23    -0.411576945103E+02    0.54422E-06   -0.16855E-08  4876   0.691E-04    0.301E-04
DAV:  24    -0.411576945994E+02   -0.89107E-07   -0.77543E-09  4776   0.770E-04
   1 F= -.41157695E+02 E0= -.41157695E+02  d E =0.000000E+00  mag=    29.7434
