       N       E                     dE             d eps       ncg     rms          rms(c)
DAV:   1     0.136358271594E+03    0.13636E+03   -0.87703E+03 11340   0.203E+03
DAV:   2    -0.154460792087E+01   -0.13790E+03   -0.12348E+03 10480   0.253E+02
DAV:   3    -0.152450485361E+02   -0.13700E+02   -0.13273E+02 11448   0.864E+01
DAV:   4    -0.159996323804E+02   -0.75458E+00   -0.74368E+00 15812   0.184E+01
DAV:   5    -0.160334868466E+02   -0.33854E-01   -0.33715E-01 13976   0.308E+00    0.133E+01
DAV:   6    -0.203159039821E+02   -0.42824E+01   -0.48128E+01 14032   0.689E+01    0.181E+01
DAV:   7    -0.191195499685E+02    0.11964E+01   -0.29689E+00 11656   0.383E+01    0.669E+00
DAV:   8    -0.187685818418E+02    0.35097E+00   -0.14191E+00 16412   0.146E+01    0.259E+00
DAV:   9    -0.188397804958E+02   -0.71199E-01   -0.15137E+00 12856   0.104E+01    0.362E+00
DAV:  10    -0.187463870081E+02    0.93393E-01   -0.80919E-01 12436   0.728E+00    0.106E+00
DAV:  11    -0.187629063489E+02   -0.16519E-01   -0.24253E-02 14880   0.121E+00    0.580E-01
DAV:  12    -0.187610709021E+02    0.18354E-02   -0.53485E-03 14808   0.690E-01    0.552E-01
DAV:  13    -0.187589060394E+02    0.21649E-02   -0.42261E-03 14528   0.544E-01    0.309E-01
DAV:  14    -0.187582878913E+02    0.61815E-03   -0.16317E-03 15288   0.338E-01    0.181E-01
DAV:  15    -0.187580520581E+02    0.23583E-03   -0.24025E-03 13232   0.412E-01    0.108E-02
DAV:  16    -0.187580644090E+02   -0.12351E-04   -0.11652E-04 14184   0.511E-02    0.138E-02
DAV:  17    -0.187580652412E+02   -0.83216E-06   -0.30679E-06 15444   0.948E-03    0.155E-02
DAV:  18    -0.187580570724E+02    0.81687E-05   -0.18911E-05 13972   0.367E-02    0.772E-03
DAV:  19    -0.187580590757E+02   -0.20033E-05   -0.14667E-06 13740   0.103E-02    0.262E-03
DAV:  20    -0.187580595700E+02   -0.49422E-06   -0.18674E-07  7988   0.389E-03    0.992E-04
DAV:  21    -0.187580596791E+02   -0.10910E-06   -0.36209E-08  6056   0.162E-03    0.416E-04
DAV:  22    -0.187580595541E+02    0.12493E-06   -0.11844E-08  5580   0.117E-03    0.144E-04
DAV:  23    -0.187580596089E+02   -0.54743E-07   -0.35608E-09  5516   0.701E-04
   1 F= -.18758060E+02 E0= -.18758060E+02  d E =0.000000E+00  mag=     6.9864
