=========================================
SLURM_JOB_ID = 30554664
SLURM_JOB_NODELIST = lnode40
SLURM_GPUS = 
SLURM_CPUS_ON_NODE = 8
SLURM_JOB_PARTITION = lenovo
SLURM_TASK_PID = 1198114
CUDA_VISIBLE_DEVICES = 
==========================================
 running on    8 total cores
 distrk:  each k-point on    8 cores,    1 groups
 distr:  one band on    1 cores,    8 groups
 using from now: INCAR     
 vasp.5.4.4.18Apr17-6-g9f103f2a35 (build Apr 28 2018 00:24:27) complex          
  
 POSCAR found type information on POSCAR  Ni
 POSCAR found :  1 types and       4 ions
 scaLAPACK will be used

 ----------------------------------------------------------------------------- 
|                                                                             |
|           W    W    AA    RRRRR   N    N  II  N    N   GGGG   !!!           |
|           W    W   A  A   R    R  NN   N  II  NN   N  G    G  !!!           |
|           W    W  A    A  R    R  N N  N  II  N N  N  G       !!!           |
|           W WW W  AAAAAA  RRRRR   N  N N  II  N  N N  G  GGG   !            |
|           WW  WW  A    A  R   R   N   NN  II  N   NN  G    G                |
|           W    W  A    A  R    R  N    N  II  N    N   GGGG   !!!           |
|                                                                             |
|      For optimal performance we recommend to set                            |
|        NCORE= 4 - approx SQRT( number of cores)                             |
|      NCORE specifies how many cores store one orbital (NPAR=cpu/NCORE).     |
|      This setting can  greatly improve the performance of VASP for DFT.     |
|      The default,   NCORE=1            might be grossly inefficient         |
|      on modern multi-core architectures or massively parallel machines.     |
|      Do your own testing !!!!                                               |
|      Unfortunately you need to use the default for GW and RPA calculations. |
|      (for HF NCORE is supported but not extensively tested yet)             |
|                                                                             |
 ----------------------------------------------------------------------------- 

 LDA part: xc-table for Pade appr. of Perdew
 POSCAR, INCAR and KPOINTS ok, starting setup
 FFT: planning ...
 WAVECAR not read
 entering main loop
       N       E                     dE             d eps       ncg     rms          rms(c)
DAV:   1     0.251067949658E+03    0.25107E+03   -0.18573E+04 20960   0.241E+03
DAV:   2    -0.115924814244E+02   -0.26266E+03   -0.25744E+03 21392   0.399E+02
DAV:   3    -0.254203880905E+02   -0.13828E+02   -0.13462E+02 21544   0.127E+02
DAV:   4    -0.256875216740E+02   -0.26713E+00   -0.26366E+00 23048   0.166E+01
DAV:   5    -0.256942361954E+02   -0.67145E-02   -0.67137E-02 25024   0.220E+00    0.238E+01
DAV:   6    -0.228873967642E+02    0.28068E+01   -0.51437E+01 20816   0.106E+02    0.128E+01
DAV:   7    -0.217262291466E+02    0.11612E+01   -0.90713E+00 22864   0.441E+01    0.337E+00
DAV:   8    -0.216697307092E+02    0.56498E-01   -0.13746E-01 22888   0.422E+00    0.124E+00
DAV:   9    -0.216627736196E+02    0.69571E-02   -0.35689E-02 25680   0.301E+00    0.321E-01
DAV:  10    -0.216616489105E+02    0.11247E-02   -0.36707E-03 23744   0.938E-01    0.471E-02
DAV:  11    -0.216616540566E+02   -0.51462E-05   -0.40825E-04 21568   0.323E-01    0.291E-02
DAV:  12    -0.216616543259E+02   -0.26925E-06   -0.75861E-05 23816   0.138E-01    0.137E-02
DAV:  13    -0.216616541606E+02    0.16529E-06   -0.18689E-05 25560   0.741E-02    0.402E-03
DAV:  14    -0.216616525828E+02    0.15778E-05   -0.28510E-06 10800   0.303E-02    0.112E-03
DAV:  15    -0.216616522535E+02    0.32936E-06   -0.54596E-07 10672   0.118E-02

 ----------------------------------------------------------------------------- 
|                                                                             |
|  ADVICE TO THIS USER RUNNING 'VASP/VAMP'   (HEAR YOUR MASTER'S VOICE ...):  |
|                                                                             |
|      Your highest band is occupied at some k-points! Unless you are         |
|      performing a calculation for an insulator or semiconductor, without    |
|      unoccupied bands, you have included TOO FEW BANDS!! Please increase    |
|      the parameter NBANDS in file INCAR to ensure that the highest band     |
|      is unoccupied at all k-points. It is always recommended to             |
|      include a few unoccupied bands to accelerate the convergence of        |
|      molecular dynamics runs (even for insulators or semiconductors).       |
|      Because the presence of unoccupied bands improves wavefunction         |
|      prediction, and helps to suppress 'band-crossings.'                    |
|                                                                             |
 ----------------------------------------------------------------------------- 

   1 F= -.21661652E+02 E0= -.21644920E+02  d E =-.501981E-01  mag=     0.0000
