=========================================
SLURM_JOB_ID = 51754164
SLURM_JOB_NODELIST = lnode59
SLURM_GPUS = 
SLURM_CPUS_ON_NODE = 24
SLURM_JOB_PARTITION = lenovo
SLURM_TASK_PID = 1115138
CUDA_VISIBLE_DEVICES = 
==========================================
 running on   24 total cores
 distrk:  each k-point on   24 cores,    1 groups
 distr:  one band on    4 cores,    6 groups
 using from now: INCAR     
 vasp.5.4.4.18Apr17-6-g9f103f2a35 (build Apr 28 2018 00:24:27) complex          
  
 POSCAR found type information on POSCAR  Fe
 POSCAR found :  1 types and       2 ions
 scaLAPACK will be used

 ----------------------------------------------------------------------------- 
|                                                                             |
|  ADVICE TO THIS USER RUNNING 'VASP/VAMP'   (HEAR YOUR MASTER'S VOICE ...):  |
|                                                                             |
|      You have a (more or less) 'small supercell' and for smaller cells      |
|      it is recommended  to use the reciprocal-space projection scheme!      |
|      The real space optimization is not  efficient for small cells and it   |
|      is also less accurate ...                                              |
|      Therefore set LREAL=.FALSE. in the  INCAR file                         |
|                                                                             |
 ----------------------------------------------------------------------------- 

 LDA part: xc-table for Pade appr. of Perdew
 POSCAR, INCAR and KPOINTS ok, starting setup
 FFT: planning ...
 WAVECAR not read
 entering main loop
       N       E                     dE             d eps       ncg     rms          rms(c)
DAV:   1     0.205271013775E+03    0.20527E+03   -0.18319E+04  3576   0.193E+03
DAV:   2    -0.103336445345E+02   -0.21560E+03   -0.20632E+03  3408   0.389E+02
DAV:   3    -0.162254178590E+02   -0.58918E+01   -0.58811E+01  3792   0.725E+01
DAV:   4    -0.162723971166E+02   -0.46979E-01   -0.46983E-01  3792   0.609E+00
DAV:   5    -0.162732779384E+02   -0.88082E-03   -0.88085E-03  3816   0.777E-01    0.250E+01
DAV:   6    -0.164554108689E+02   -0.18213E+00   -0.74925E+00  3420   0.396E+01    0.690E+00
DAV:   7    -0.165117221525E+02   -0.56311E-01   -0.61399E-01  3432   0.966E+00    0.430E+00
DAV:   8    -0.165217355711E+02   -0.10013E-01   -0.14951E-02  3660   0.146E+00    0.137E+00
DAV:   9    -0.165135540531E+02    0.81815E-02   -0.51415E-03  3708   0.870E-01    0.337E-01
DAV:  10    -0.165133810732E+02    0.17298E-03   -0.22483E-03  3420   0.610E-01    0.441E-02
DAV:  11    -0.165134402370E+02   -0.59164E-04   -0.48284E-05  3612   0.645E-02    0.243E-02
DAV:  12    -0.165134483396E+02   -0.81025E-05   -0.48443E-06  3840   0.221E-02    0.956E-03
DAV:  13    -0.165134415649E+02    0.67747E-05   -0.13364E-06  3528   0.114E-02    0.245E-03
DAV:  14    -0.165134400244E+02    0.15405E-05   -0.15340E-07  2676   0.327E-03    0.615E-04
DAV:  15    -0.165134400278E+02   -0.33997E-08   -0.11595E-08  1740   0.111E-03
   1 F= -.16513440E+02 E0= -.16513440E+02  d E =0.000000E+00  mag=     4.4056
