       N       E                     dE             d eps       ncg     rms          rms(c)
DAV:   1     0.185126011338E+03    0.18513E+03   -0.16503E+04  3588   0.171E+03
DAV:   2    -0.111288923594E+02   -0.19625E+03   -0.18848E+03  3420   0.362E+02
DAV:   3    -0.162300324414E+02   -0.51011E+01   -0.50948E+01  3756   0.659E+01
DAV:   4    -0.162693150412E+02   -0.39283E-01   -0.39287E-01  3792   0.538E+00
DAV:   5    -0.162700332597E+02   -0.71822E-03   -0.71825E-03  3876   0.682E-01    0.250E+01
DAV:   6    -0.164338745356E+02   -0.16384E+00   -0.74952E+00  3420   0.393E+01    0.692E+00
DAV:   7    -0.165048915867E+02   -0.71017E-01   -0.61299E-01  3396   0.941E+00    0.431E+00
DAV:   8    -0.165167224750E+02   -0.11831E-01   -0.14658E-02  3708   0.141E+00    0.137E+00
DAV:   9    -0.165093002718E+02    0.74222E-02   -0.52593E-03  3624   0.868E-01    0.336E-01
DAV:  10    -0.165092467312E+02    0.53541E-04   -0.21659E-03  3420   0.593E-01    0.437E-02
DAV:  11    -0.165093150309E+02   -0.68300E-04   -0.57220E-05  3528   0.657E-02    0.247E-02
DAV:  12    -0.165093221984E+02   -0.71675E-05   -0.45737E-06  3804   0.211E-02    0.950E-03
DAV:  13    -0.165093143608E+02    0.78377E-05   -0.16366E-06  3528   0.122E-02    0.150E-03
DAV:  14    -0.165093139985E+02    0.36222E-06   -0.93487E-08  2628   0.237E-03    0.685E-04
DAV:  15    -0.165093141379E+02   -0.13937E-06   -0.84117E-09  1680   0.968E-04    0.270E-04
DAV:  16    -0.165093139088E+02    0.22911E-06   -0.86750E-10  1680   0.280E-04    0.118E-04
DAV:  17    -0.165093140279E+02   -0.11912E-06   -0.18856E-10  1680   0.137E-04    0.304E-05
DAV:  18    -0.165093140235E+02    0.43919E-08   -0.24045E-11  1680   0.475E-05
   1 F= -.16509314E+02 E0= -.16509314E+02  d E =0.000000E+00  mag=     4.4058
