 vasp.5.4.4.18Apr17-6-g9f103f2a35 (build Apr 28 2018 00:24:27) complex          
  
 executed on             LinuxIFC date 2021.09.07  01:11:07
 running on   24 total cores
 distrk:  each k-point on   24 cores,    1 groups
 distr:  one band on NCORES_PER_BAND=   4 cores,    6 groups


--------------------------------------------------------------------------------------------------------


 INCAR:
 POTCAR:    PAW_PBE Fe_pv 02Aug2007               
 POTCAR:    PAW_PBE Fe_pv 02Aug2007               
   VRHFIN =Fe:  3pd7s1                                                          
   LEXCH  = PE                                                                  
   EATOM  =  2457.4239 eV,  180.6156 Ry                                         
                                                                                
   TITEL  = PAW_PBE Fe_pv 02Aug2007                                             
   LULTRA =        F    use ultrasoft PP ?                                      
   IUNSCR =        1    unscreen: 0-lin 1-nonlin 2-no                           
   RPACOR =    1.750    partial core radius                                     
   POMASS =   55.847; ZVAL   =   14.000    mass and valenz                      
   RCORE  =    2.200    outmost cutoff radius                                   
   RWIGS  =    2.200; RWIGS  =    1.164    wigner-seitz radius (au A)           
   ENMAX  =  293.238; ENMIN  =  219.928 eV                                      
   ICORE  =        3    local potential                                         
   LCOR   =        T    correct aug charges                                     
   LPAW   =        T    paw PP                                                  
   EAUG   =  578.342                                                            
   DEXC   =    0.000                                                            
   RMAX   =    2.249    core radius for proj-oper                               
   RAUG   =    1.300    factor for augmentation sphere                          
   RDEP   =    2.296    radius for radial grids                                 
   RDEPT  =    1.766    core radius for aug-charge                              
                                                                                
   Atomic configuration                                                         
    8 entries                                                                   
     n  l   j            E        occ.                                          
     1  0  0.50     -6993.8440   2.0000                                         
     2  0  0.50      -814.6047   2.0000                                         
     2  1  1.50      -693.3689   6.0000                                         
     3  0  0.50       -89.4732   2.0000                                         
     3  1  1.50       -55.6373   6.0000                                         
     3  2  2.50        -3.8151   7.0000                                         
     4  0  0.50        -4.2551   1.0000                                         
     4  3  2.50        -1.3606   0.0000                                         
   Description                                                                  
     l       E           TYP  RCUT    TYP  RCUT                                 
     1    -55.6372668     23  2.000                                             
     1     -5.4423304     23  2.000                                             
     2     -3.8151096     23  2.200                                             
     2     -5.1756922     23  2.200                                             
     0     -4.2550951     23  2.200                                             
     0     27.2116520     23  2.200                                             
     3     -1.3605826     23  2.200                                             
  local pseudopotential read in
  partial core-charges read in
  partial kinetic energy density read in
  atomic valenz-charges read in
  non local Contribution for L=           1  read in
    real space projection operators read in
  non local Contribution for L=           1  read in
    real space projection operators read in
  non local Contribution for L=           2  read in
    real space projection operators read in
  non local Contribution for L=           2  read in
    real space projection operators read in
  non local Contribution for L=           0  read in
    real space projection operators read in
  non local Contribution for L=           0  read in
    real space projection operators read in
    PAW grid and wavefunctions read in
 
   number of l-projection  operators is LMAX  =           6
   number of lm-projection operators is LMMAX =          18
 

 ----------------------------------------------------------------------------- 
|                                                                             |
|  ADVICE TO THIS USER RUNNING 'VASP/VAMP'   (HEAR YOUR MASTER'S VOICE ...):  |
|                                                                             |
|      You have a (more or less) 'small supercell' and for smaller cells      |
|      it is recommended  to use the reciprocal-space projection scheme!      |
|      The real space optimization is not  efficient for small cells and it   |
|      is also less accurate ...                                              |
|      Therefore set LREAL=.FALSE. in the  INCAR file                         |
|                                                                             |
 ----------------------------------------------------------------------------- 

 Optimization of the real space projectors (new method)

 maximal supplied QI-value         = 17.01
 optimisation between [QCUT,QGAM] = [ 10.71, 21.43] = [ 32.15,128.60] Ry 
 Optimized for a Real-space Cutoff    1.48 Angstroem

   l    n(q)    QCUT    max X(q) W(low)/X(q) W(high)/X(q)  e(spline) 
   1      9    10.715     4.267    0.12E-03    0.63E-04    0.17E-06
   1      9    10.715     5.750    0.16E-03    0.11E-03    0.22E-06
   2      9    10.715    53.656    0.57E-04    0.98E-04    0.15E-06
   2      9    10.715    49.521    0.58E-04    0.10E-03    0.15E-06
   0     10    10.715    31.246    0.54E-04    0.50E-04    0.94E-07
   0     10    10.715    12.201    0.37E-04    0.41E-04    0.80E-07
  PAW_PBE Fe_pv 02Aug2007               :
 energy of atom  1       EATOM=-2457.4239
 kinetic energy error for atom=    0.0177 (will be added to EATOM!!)
 
 
 POSCAR: Fe2                                     
  positions in direct lattice
  No initial velocities read in
 exchange correlation table for  LEXCH =        8
   RHO(1)=    0.500       N(1)  =     2000
   RHO(2)=  100.500       N(2)  =     4000
 


--------------------------------------------------------------------------------------------------------


 ion  position               nearest neighbor table
   1  0.000  0.000  0.000-   2 2.46   2 2.46   2 2.46   2 2.46   2 2.46   2 2.46   2 2.46   2 2.46

   2  0.500  0.500  0.500-   1 2.46   1 2.46   1 2.46   1 2.46   1 2.46   1 2.46   1 2.46   1 2.46

 
  LATTYP: Found a simple cubic cell.
 ALAT       =     2.8400520000
  
  Lattice vectors:
  
 A1 = (   2.8400520000,   0.0000000000,   0.0000000000)
 A2 = (   0.0000000000,   2.8400520000,   0.0000000000)
 A3 = (   0.0000000000,   0.0000000000,   2.8400520000)


Analysis of symmetry for initial positions (statically):
=====================================================================
 Subroutine PRICEL returns following result:
 
  LATTYP: Found a body centered cubic cell.
 ALAT       =     2.8400520000
  
  Lattice vectors:
  
 A1 = (   1.4200260000,   1.4200260000,   1.4200260000)
 A2 = (   1.4200260000,  -1.4200260000,  -1.4200260000)
 A3 = (  -1.4200260000,   1.4200260000,  -1.4200260000)
 
   2 primitive cells build up your supercell.
 

 Routine SETGRP: Setting up the symmetry group for a 
 simple cubic supercell.


 Subroutine GETGRP returns: Found 48 space group operations
 (whereof 48 operations were pure point group operations)
 out of a pool of 48 trial point group operations.


The static configuration has the point symmetry O_h .


Analysis of symmetry for dynamics (positions and initial velocities):
=====================================================================
 Subroutine PRICEL returns following result:
 
  LATTYP: Found a body centered cubic cell.
 ALAT       =     2.8400520000
  
  Lattice vectors:
  
 A1 = (   1.4200260000,   1.4200260000,   1.4200260000)
 A2 = (   1.4200260000,  -1.4200260000,  -1.4200260000)
 A3 = (  -1.4200260000,   1.4200260000,  -1.4200260000)
 
   2 primitive cells build up your supercell.
 

 Routine SETGRP: Setting up the symmetry group for a 
 simple cubic supercell.


 Subroutine GETGRP returns: Found 48 space group operations
 (whereof 48 operations were pure point group operations)
 out of a pool of 48 trial point group operations.


The dynamic configuration has the point symmetry O_h .


Analysis of structural, dynamic, and magnetic symmetry:
=====================================================================
 Subroutine PRICEL returns following result:
 
  LATTYP: Found a body centered cubic cell.
 ALAT       =     2.8400520000
  
  Lattice vectors:
  
 A1 = (   1.4200260000,   1.4200260000,   1.4200260000)
 A2 = (   1.4200260000,  -1.4200260000,  -1.4200260000)
 A3 = (  -1.4200260000,   1.4200260000,  -1.4200260000)
 
   2 primitive cells build up your supercell.
 

 Routine SETGRP: Setting up the symmetry group for a 
 simple cubic supercell.


 Subroutine GETGRP returns: Found 48 space group operations
 (whereof 48 operations were pure point group operations)
 out of a pool of 48 trial point group operations.


The magnetic configuration has the point symmetry O_h .


 Subroutine INISYM returns: Found 48 space group operations
 (whereof 48 operations are pure point group operations),
 and found     2 'primitive' translations

 
 
 KPOINTS: pymatgen with grid density = 2166 / numb

Automatic generation of k-mesh.
Space group operators:
 irot       det(A)        alpha          n_x          n_y          n_z        tau_x        tau_y        tau_z
    1     1.000000     0.000000     1.000000     0.000000     0.000000     0.000000     0.000000     0.000000
    2    -1.000000     0.000000     1.000000     0.000000     0.000000     0.000000     0.000000     0.000000
    3     1.000000   120.000000    -0.577350    -0.577350    -0.577350     0.000000     0.000000     0.000000
    4    -1.000000   120.000000    -0.577350    -0.577350    -0.577350     0.000000     0.000000     0.000000
    5     1.000000   120.000000     0.577350     0.577350     0.577350     0.000000     0.000000     0.000000
    6    -1.000000   120.000000     0.577350     0.577350     0.577350     0.000000     0.000000     0.000000
    7     1.000000    90.000000     0.000000     0.000000    -1.000000     0.000000     0.000000     0.000000
    8    -1.000000    90.000000     0.000000     0.000000    -1.000000     0.000000     0.000000     0.000000
    9     1.000000   180.000000     0.000000     0.707107     0.707107     0.000000     0.000000     0.000000
   10    -1.000000   180.000000     0.000000     0.707107     0.707107     0.000000     0.000000     0.000000
   11     1.000000    90.000000     0.000000     1.000000     0.000000     0.000000     0.000000     0.000000
   12    -1.000000    90.000000     0.000000     1.000000     0.000000     0.000000     0.000000     0.000000
   13     1.000000   180.000000     0.000000     0.000000     1.000000     0.000000     0.000000     0.000000
   14    -1.000000   180.000000     0.000000     0.000000     1.000000     0.000000     0.000000     0.000000
   15     1.000000   120.000000    -0.577350     0.577350     0.577350     0.000000     0.000000     0.000000
   16    -1.000000   120.000000    -0.577350     0.577350     0.577350     0.000000     0.000000     0.000000
   17     1.000000   120.000000    -0.577350     0.577350    -0.577350     0.000000     0.000000     0.000000
   18    -1.000000   120.000000    -0.577350     0.577350    -0.577350     0.000000     0.000000     0.000000
   19     1.000000    90.000000     0.000000     0.000000     1.000000     0.000000     0.000000     0.000000
   20    -1.000000    90.000000     0.000000     0.000000     1.000000     0.000000     0.000000     0.000000
   21     1.000000    90.000000    -1.000000     0.000000     0.000000     0.000000     0.000000     0.000000
   22    -1.000000    90.000000    -1.000000     0.000000     0.000000     0.000000     0.000000     0.000000
   23     1.000000   180.000000     0.707107     0.000000     0.707107     0.000000     0.000000     0.000000
   24    -1.000000   180.000000     0.707107     0.000000     0.707107     0.000000     0.000000     0.000000
   25     1.000000   120.000000     0.577350    -0.577350     0.577350     0.000000     0.000000     0.000000
   26    -1.000000   120.000000     0.577350    -0.577350     0.577350     0.000000     0.000000     0.000000
   27     1.000000   120.000000    -0.577350    -0.577350     0.577350     0.000000     0.000000     0.000000
   28    -1.000000   120.000000    -0.577350    -0.577350     0.577350     0.000000     0.000000     0.000000
   29     1.000000   180.000000     1.000000     0.000000     0.000000     0.000000     0.000000     0.000000
   30    -1.000000   180.000000     1.000000     0.000000     0.000000     0.000000     0.000000     0.000000
   31     1.000000    90.000000     0.000000    -1.000000     0.000000     0.000000     0.000000     0.000000
   32    -1.000000    90.000000     0.000000    -1.000000     0.000000     0.000000     0.000000     0.000000
   33     1.000000   180.000000     0.707107     0.707107     0.000000     0.000000     0.000000     0.000000
   34    -1.000000   180.000000     0.707107     0.707107     0.000000     0.000000     0.000000     0.000000
   35     1.000000    90.000000     1.000000     0.000000     0.000000     0.000000     0.000000     0.000000
   36    -1.000000    90.000000     1.000000     0.000000     0.000000     0.000000     0.000000     0.000000
   37     1.000000   120.000000     0.577350    -0.577350    -0.577350     0.000000     0.000000     0.000000
   38    -1.000000   120.000000     0.577350    -0.577350    -0.577350     0.000000     0.000000     0.000000
   39     1.000000   180.000000     0.000000     1.000000     0.000000     0.000000     0.000000     0.000000
   40    -1.000000   180.000000     0.000000     1.000000     0.000000     0.000000     0.000000     0.000000
   41     1.000000   120.000000     0.577350     0.577350    -0.577350     0.000000     0.000000     0.000000
   42    -1.000000   120.000000     0.577350     0.577350    -0.577350     0.000000     0.000000     0.000000
   43     1.000000   180.000000     0.000000    -0.707107     0.707107     0.000000     0.000000     0.000000
   44    -1.000000   180.000000     0.000000    -0.707107     0.707107     0.000000     0.000000     0.000000
   45     1.000000   180.000000     0.707107    -0.707107     0.000000     0.000000     0.000000     0.000000
   46    -1.000000   180.000000     0.707107    -0.707107     0.000000     0.000000     0.000000     0.000000
   47     1.000000   180.000000     0.707107     0.000000    -0.707107     0.000000     0.000000     0.000000
   48    -1.000000   180.000000     0.707107     0.000000    -0.707107     0.000000     0.000000     0.000000
 
 Subroutine IBZKPT returns following result:
 ===========================================
 
 Found     35 irreducible k-points:
 
 Following reciprocal coordinates:
            Coordinates               Weight
  0.050000  0.050000  0.050000      8.000000
  0.150000  0.050000  0.050000     24.000000
  0.250000  0.050000  0.050000     24.000000
  0.350000  0.050000  0.050000     24.000000
  0.450000  0.050000  0.050000     24.000000
  0.150000  0.150000  0.050000     24.000000
  0.250000  0.150000  0.050000     48.000000
  0.350000  0.150000  0.050000     48.000000
  0.450000  0.150000  0.050000     48.000000
  0.250000  0.250000  0.050000     24.000000
  0.350000  0.250000  0.050000     48.000000
  0.450000  0.250000  0.050000     48.000000
  0.350000  0.350000  0.050000     24.000000
  0.450000  0.350000  0.050000     48.000000
  0.450000  0.450000  0.050000     24.000000
  0.150000  0.150000  0.150000      8.000000
  0.250000  0.150000  0.150000     24.000000
  0.350000  0.150000  0.150000     24.000000
  0.450000  0.150000  0.150000     24.000000
  0.250000  0.250000  0.150000     24.000000
  0.350000  0.250000  0.150000     48.000000
  0.450000  0.250000  0.150000     48.000000
  0.350000  0.350000  0.150000     24.000000
  0.450000  0.350000  0.150000     48.000000
  0.450000  0.450000  0.150000     24.000000
  0.250000  0.250000  0.250000      8.000000
  0.350000  0.250000  0.250000     24.000000
  0.450000  0.250000  0.250000     24.000000
  0.350000  0.350000  0.250000     24.000000
  0.450000  0.350000  0.250000     48.000000
  0.450000  0.450000  0.250000     24.000000
  0.350000  0.350000  0.350000      8.000000
  0.450000  0.350000  0.350000     24.000000
  0.450000  0.450000  0.350000     24.000000
  0.450000  0.450000  0.450000      8.000000
 
 Following cartesian coordinates:
            Coordinates               Weight
  0.017605  0.017605  0.017605      8.000000
  0.052816  0.017605  0.017605     24.000000
  0.088027  0.017605  0.017605     24.000000
  0.123237  0.017605  0.017605     24.000000
  0.158448  0.017605  0.017605     24.000000
  0.052816  0.052816  0.017605     24.000000
  0.088027  0.052816  0.017605     48.000000
  0.123237  0.052816  0.017605     48.000000
  0.158448  0.052816  0.017605     48.000000
  0.088027  0.088027  0.017605     24.000000
  0.123237  0.088027  0.017605     48.000000
  0.158448  0.088027  0.017605     48.000000
  0.123237  0.123237  0.017605     24.000000
  0.158448  0.123237  0.017605     48.000000
  0.158448  0.158448  0.017605     24.000000
  0.052816  0.052816  0.052816      8.000000
  0.088027  0.052816  0.052816     24.000000
  0.123237  0.052816  0.052816     24.000000
  0.158448  0.052816  0.052816     24.000000
  0.088027  0.088027  0.052816     24.000000
  0.123237  0.088027  0.052816     48.000000
  0.158448  0.088027  0.052816     48.000000
  0.123237  0.123237  0.052816     24.000000
  0.158448  0.123237  0.052816     48.000000
  0.158448  0.158448  0.052816     24.000000
  0.088027  0.088027  0.088027      8.000000
  0.123237  0.088027  0.088027     24.000000
  0.158448  0.088027  0.088027     24.000000
  0.123237  0.123237  0.088027     24.000000
  0.158448  0.123237  0.088027     48.000000
  0.158448  0.158448  0.088027     24.000000
  0.123237  0.123237  0.123237      8.000000
  0.158448  0.123237  0.123237     24.000000
  0.158448  0.158448  0.123237     24.000000
  0.158448  0.158448  0.158448      8.000000
 
 TETIRR: Found    466 inequivalent tetrahedra from     6000


--------------------------------------------------------------------------------------------------------




 Dimension of arrays:
   k-points           NKPTS =     35   k-points in BZ     NKDIM =     35   number of bands    NBANDS=     24
   number of dos      NEDOS =    301   number of ions     NIONS =      2
   non local maximal  LDIM  =      6   non local SUM 2l+1 LMDIM =     18
   total plane-waves  NPLWV =   8000
   max r-space proj   IRMAX =   4806   max aug-charges    IRDMAX=  10541
   dimension x,y,z NGX =    20 NGY =   20 NGZ =   20
   dimension x,y,z NGXF=    40 NGYF=   40 NGZF=   40
   support grid    NGXF=    40 NGYF=   40 NGZF=   40
   ions per type =               2
   NGX,Y,Z   is equivalent  to a cutoff of  11.71, 11.71, 11.71 a.u.
   NGXF,Y,Z  is equivalent  to a cutoff of  23.41, 23.41, 23.41 a.u.

 SYSTEM =  unknown system                          
 POSCAR =  Fe2                                     

 Startparameter for this run:
   NWRITE =      2    write-flag & timer
   PREC   = accura    normal or accurate (medium, high low for compatibility)
   ISTART =      0    job   : 0-new  1-cont  2-samecut
   ICHARG =      2    charge: 1-file 2-atom 10-const
   ISPIN  =      2    spin polarized calculation?
   LNONCOLLINEAR =      F non collinear calculations
   LSORBIT =      F    spin-orbit coupling
   INIWAV =      1    electr: 0-lowe 1-rand  2-diag
   LASPH  =      F    aspherical Exc in radial PAW
   METAGGA=      F    non-selfconsistent MetaGGA calc.

 Electronic Relaxation 1
   ENCUT  =  440.0 eV  32.34 Ry    5.69 a.u.   4.86  4.86  4.86*2*pi/ulx,y,z
   ENINI  =  440.0     initial cutoff
   ENAUG  =  578.3 eV  augmentation charge cutoff
   NELM   =    100;   NELMIN=  2; NELMDL= -5     # of ELM steps 
   EDIFF  = 0.1E-06   stopping-criterion for ELM
   LREAL  =      T    real-space projection
   NLSPLINE    = F    spline interpolate recip. space projectors
   LCOMPAT=      F    compatible to vasp.4.4
   GGA_COMPAT  = T    GGA compatible to vasp.4.4-vasp.4.6
   LMAXPAW     = -100 max onsite density
   LMAXMIX     =    2 max onsite mixed and CHGCAR
   VOSKOWN=      0    Vosko Wilk Nusair interpolation
   ROPT   =   -0.00025
 Ionic relaxation
   EDIFFG = 0.1E-05   stopping-criterion for IOM
   NSW    =      0    number of steps for IOM
   NBLOCK =      1;   KBLOCK =      1    inner block; outer block 
   IBRION =     -1    ionic relax: 0-MD 1-quasi-New 2-CG
   NFREE  =      0    steps in history (QN), initial steepest desc. (CG)
   ISIF   =      3    stress and relaxation
   IWAVPR =     10    prediction:  0-non 1-charg 2-wave 3-comb
   ISYM   =      2    0-nonsym 1-usesym 2-fastsym
   LCORR  =      T    Harris-Foulkes like correction to forces

   POTIM  = 0.5000    time-step for ionic-motion
   TEIN   =    0.0    initial temperature
   TEBEG  =    0.0;   TEEND  =   0.0 temperature during run
   SMASS  =  -3.00    Nose mass-parameter (am)
   estimated Nose-frequenzy (Omega)   =  0.10E-29 period in steps =****** mass=  -0.184E-27a.u.
   SCALEE = 1.0000    scale energy and forces
   NPACO  =    256;   APACO  = 16.0  distance and # of slots for P.C.
   PSTRESS=    0.0 pullay stress

  Mass of Ions in am
   POMASS =  55.85
  Ionic Valenz
   ZVAL   =  14.00
  Atomic Wigner-Seitz radii
   RWIGS  =  -1.00
  virtual crystal weights 
   VCA    =   1.00
   NELECT =      28.0000    total number of electrons
   NUPDOWN=      -1.0000    fix difference up-down

 DOS related values:
   EMIN   =  10.00;   EMAX   =-10.00  energy-range for DOS
   EFERMI =   0.00
   ISMEAR =    -5;   SIGMA  =   0.05  broadening in eV -4-tet -1-fermi 0-gaus

 Electronic relaxation 2 (details)
   IALGO  =     38    algorithm
   LDIAG  =      T    sub-space diagonalisation (order eigenvalues)
   LSUBROT=      F    optimize rotation matrix (better conditioning)
   TURBO    =      0    0=normal 1=particle mesh
   IRESTART =      0    0=no restart 2=restart with 2 vectors
   NREBOOT  =      0    no. of reboots
   NMIN     =      0    reboot dimension
   EREF     =   0.00    reference energy to select bands
   IMIX   =      4    mixing-type and parameters
     AMIX     =   0.40;   BMIX     =  1.00
     AMIX_MAG =   1.60;   BMIX_MAG =  1.00
     AMIN     =   0.10
     WC   =   100.;   INIMIX=   1;  MIXPRE=   1;  MAXMIX= -45

 Intra band minimization:
   WEIMIN = 0.0000     energy-eigenvalue tresh-hold
   EBREAK =  0.10E-08  absolut break condition
   DEPER  =   0.30     relativ break condition  

   TIME   =   0.40     timestep for ELM

  volume/ion in A,a.u.               =      11.45        77.29
  Fermi-wavevector in a.u.,A,eV,Ry     =   1.750389  3.307755 41.686364  3.063861
  Thomas-Fermi vector in A             =   2.821117
 
 Write flags
   LWAVE        =      F    write WAVECAR
   LDOWNSAMPLE  =      F    k-point downsampling of WAVECAR
   LCHARG       =      F    write CHGCAR
   LVTOT        =      F    write LOCPOT, total local potential
   LVHAR        =      F    write LOCPOT, Hartree potential only
   LELF         =      F    write electronic localiz. function (ELF)
   LORBIT       =     11    0 simple, 1 ext, 2 COOP (PROOUT), +10 PAW based schemes


 Dipole corrections
   LMONO  =      F    monopole corrections only (constant potential shift)
   LDIPOL =      F    correct potential (dipole corrections)
   IDIPOL =      0    1-x, 2-y, 3-z, 4-all directions 
   EPSILON=  1.0000000 bulk dielectric constant

 Exchange correlation treatment:
   GGA     =    --    GGA type
   LEXCH   =     8    internal setting for exchange type
   VOSKOWN=      0    Vosko Wilk Nusair interpolation
   LHFCALC =     F    Hartree Fock is set to
   LHFONE  =     F    Hartree Fock one center treatment
   AEXX    =    0.0000 exact exchange contribution

 Linear response parameters
   LEPSILON=     F    determine dielectric tensor
   LRPA    =     F    only Hartree local field effects (RPA)
   LNABLA  =     F    use nabla operator in PAW spheres
   LVEL    =     F    velocity operator in full k-point grid
   LINTERFAST=   F  fast interpolation
   KINTER  =     0    interpolate to denser k-point grid
   CSHIFT  =0.1000    complex shift for real part using Kramers Kronig
   OMEGAMAX=  -1.0    maximum frequency
   DEG_THRESHOLD= 0.2000000E-02 threshold for treating states as degnerate
   RTIME   =   -0.100 relaxation time in fs
  (WPLASMAI=    0.000 imaginary part of plasma frequency in eV, 0.658/RTIME)
   DFIELD  = 0.0000000 0.0000000 0.0000000 field for delta impulse in time
 
 Orbital magnetization related:
   ORBITALMAG=     F  switch on orbital magnetization
   LCHIMAG   =     F  perturbation theory with respect to B field
   DQ        =  0.001000  dq finite difference perturbation B field
   LLRAUG    =     F  two centre corrections for induced B field



--------------------------------------------------------------------------------------------------------


 Static calculation
 charge density and potential will be updated during run
 spin polarized calculation
 Variant of blocked Davidson
 Davidson routine will perform the subspace rotation
 perform sub-space diagonalisation
    after iterative eigenvector-optimisation
 modified Broyden-mixing scheme, WC =      100.0
 initial mixing is a Kerker type mixing with AMIX =  0.4000 and BMIX =      1.0000
 Hartree-type preconditioning will be used
 using additional bands           10
 real space projection scheme for non local part
 use partial core corrections
 calculate Harris-corrections to forces 
   (improved forces if not selfconsistent)
 use gradient corrections 
 use of overlap-Matrix (Vanderbilt PP)
 Fermi weights with tetrahedron method with Bloechl corrections


--------------------------------------------------------------------------------------------------------


  energy-cutoff  :      440.00
  volume of cell :       22.91
      direct lattice vectors                 reciprocal lattice vectors
     2.840052000  0.000000000  0.000000000     0.352106229  0.000000000  0.000000000
     0.000000000  2.840052000  0.000000000     0.000000000  0.352106229  0.000000000
     0.000000000  0.000000000  2.840052000     0.000000000  0.000000000  0.352106229

  length of vectors
     2.840052000  2.840052000  2.840052000     0.352106229  0.352106229  0.352106229


 
 k-points in units of 2pi/SCALE and weight: pymatgen with grid density = 2166 / numb
   0.01760531  0.01760531  0.01760531       0.008
   0.05281593  0.01760531  0.01760531       0.024
   0.08802656  0.01760531  0.01760531       0.024
   0.12323718  0.01760531  0.01760531       0.024
   0.15844780  0.01760531  0.01760531       0.024
   0.05281593  0.05281593  0.01760531       0.024
   0.08802656  0.05281593  0.01760531       0.048
   0.12323718  0.05281593  0.01760531       0.048
   0.15844780  0.05281593  0.01760531       0.048
   0.08802656  0.08802656  0.01760531       0.024
   0.12323718  0.08802656  0.01760531       0.048
   0.15844780  0.08802656  0.01760531       0.048
   0.12323718  0.12323718  0.01760531       0.024
   0.15844780  0.12323718  0.01760531       0.048
   0.15844780  0.15844780  0.01760531       0.024
   0.05281593  0.05281593  0.05281593       0.008
   0.08802656  0.05281593  0.05281593       0.024
   0.12323718  0.05281593  0.05281593       0.024
   0.15844780  0.05281593  0.05281593       0.024
   0.08802656  0.08802656  0.05281593       0.024
   0.12323718  0.08802656  0.05281593       0.048
   0.15844780  0.08802656  0.05281593       0.048
   0.12323718  0.12323718  0.05281593       0.024
   0.15844780  0.12323718  0.05281593       0.048
   0.15844780  0.15844780  0.05281593       0.024
   0.08802656  0.08802656  0.08802656       0.008
   0.12323718  0.08802656  0.08802656       0.024
   0.15844780  0.08802656  0.08802656       0.024
   0.12323718  0.12323718  0.08802656       0.024
   0.15844780  0.12323718  0.08802656       0.048
   0.15844780  0.15844780  0.08802656       0.024
   0.12323718  0.12323718  0.12323718       0.008
   0.15844780  0.12323718  0.12323718       0.024
   0.15844780  0.15844780  0.12323718       0.024
   0.15844780  0.15844780  0.15844780       0.008
 
 k-points in reciprocal lattice and weights: pymatgen with grid density = 2166 / numb
   0.05000000  0.05000000  0.05000000       0.008
   0.15000000  0.05000000  0.05000000       0.024
   0.25000000  0.05000000  0.05000000       0.024
   0.35000000  0.05000000  0.05000000       0.024
   0.45000000  0.05000000  0.05000000       0.024
   0.15000000  0.15000000  0.05000000       0.024
   0.25000000  0.15000000  0.05000000       0.048
   0.35000000  0.15000000  0.05000000       0.048
   0.45000000  0.15000000  0.05000000       0.048
   0.25000000  0.25000000  0.05000000       0.024
   0.35000000  0.25000000  0.05000000       0.048
   0.45000000  0.25000000  0.05000000       0.048
   0.35000000  0.35000000  0.05000000       0.024
   0.45000000  0.35000000  0.05000000       0.048
   0.45000000  0.45000000  0.05000000       0.024
   0.15000000  0.15000000  0.15000000       0.008
   0.25000000  0.15000000  0.15000000       0.024
   0.35000000  0.15000000  0.15000000       0.024
   0.45000000  0.15000000  0.15000000       0.024
   0.25000000  0.25000000  0.15000000       0.024
   0.35000000  0.25000000  0.15000000       0.048
   0.45000000  0.25000000  0.15000000       0.048
   0.35000000  0.35000000  0.15000000       0.024
   0.45000000  0.35000000  0.15000000       0.048
   0.45000000  0.45000000  0.15000000       0.024
   0.25000000  0.25000000  0.25000000       0.008
   0.35000000  0.25000000  0.25000000       0.024
   0.45000000  0.25000000  0.25000000       0.024
   0.35000000  0.35000000  0.25000000       0.024
   0.45000000  0.35000000  0.25000000       0.048
   0.45000000  0.45000000  0.25000000       0.024
   0.35000000  0.35000000  0.35000000       0.008
   0.45000000  0.35000000  0.35000000       0.024
   0.45000000  0.45000000  0.35000000       0.024
   0.45000000  0.45000000  0.45000000       0.008
 
 position of ions in fractional coordinates (direct lattice) 
   0.00000000  0.00000000  0.00000000
   0.50000000  0.50000000  0.50000000
 
 position of ions in cartesian coordinates  (Angst):
   0.00000000  0.00000000  0.00000000
   1.42002600  1.42002600  1.42002600
 


--------------------------------------------------------------------------------------------------------


 k-point  1 :   0.0500 0.0500 0.0500  plane waves:     464
 k-point  2 :   0.1500 0.0500 0.0500  plane waves:     472
 k-point  3 :   0.2500 0.0500 0.0500  plane waves:     475
 k-point  4 :   0.3500 0.0500 0.0500  plane waves:     478
 k-point  5 :   0.4500 0.0500 0.0500  plane waves:     479
 k-point  6 :   0.1500 0.1500 0.0500  plane waves:     471
 k-point  7 :   0.2500 0.1500 0.0500  plane waves:     478
 k-point  8 :   0.3500 0.1500 0.0500  plane waves:     478
 k-point  9 :   0.4500 0.1500 0.0500  plane waves:     476
 k-point 10 :   0.2500 0.2500 0.0500  plane waves:     479
 k-point 11 :   0.3500 0.2500 0.0500  plane waves:     485
 k-point 12 :   0.4500 0.2500 0.0500  plane waves:     479
 k-point 13 :   0.3500 0.3500 0.0500  plane waves:     489
 k-point 14 :   0.4500 0.3500 0.0500  plane waves:     485
 k-point 15 :   0.4500 0.4500 0.0500  plane waves:     484
 k-point 16 :   0.1500 0.1500 0.1500  plane waves:     476
 k-point 17 :   0.2500 0.1500 0.1500  plane waves:     479
 k-point 18 :   0.3500 0.1500 0.1500  plane waves:     479
 k-point 19 :   0.4500 0.1500 0.1500  plane waves:     476
 k-point 20 :   0.2500 0.2500 0.1500  plane waves:     478
 k-point 21 :   0.3500 0.2500 0.1500  plane waves:     480
 k-point 22 :   0.4500 0.2500 0.1500  plane waves:     480
 k-point 23 :   0.3500 0.3500 0.1500  plane waves:     481
 k-point 24 :   0.4500 0.3500 0.1500  plane waves:     484
 k-point 25 :   0.4500 0.4500 0.1500  plane waves:     490
 k-point 26 :   0.2500 0.2500 0.2500  plane waves:     480
 k-point 27 :   0.3500 0.2500 0.2500  plane waves:     480
 k-point 28 :   0.4500 0.2500 0.2500  plane waves:     483
 k-point 29 :   0.3500 0.3500 0.2500  plane waves:     477
 k-point 30 :   0.4500 0.3500 0.2500  plane waves:     484
 k-point 31 :   0.4500 0.4500 0.2500  plane waves:     488
 k-point 32 :   0.3500 0.3500 0.3500  plane waves:     480
 k-point 33 :   0.4500 0.3500 0.3500  plane waves:     478
 k-point 34 :   0.4500 0.4500 0.3500  plane waves:     478
 k-point 35 :   0.4500 0.4500 0.4500  plane waves:     480

 maximum and minimum number of plane-waves per node :       129      103

 maximum number of plane-waves:       490
 maximum index in each direction: 
   IXMAX=    4   IYMAX=    4   IZMAX=    4
   IXMIN=   -5   IYMIN=   -5   IZMIN=   -5


 real space projection operators:
  total allocation   :       1300.78 KBytes
  max/ min on nodes  :        328.36        322.03


 parallel 3D FFT for wavefunctions:
    minimum data exchange during FFTs selected (reduces bandwidth)
 parallel 3D FFT for charge:
    minimum data exchange during FFTs selected (reduces bandwidth)


 total amount of memory used by VASP MPI-rank0    31842. kBytes
=======================================================================

   base      :      30000. kBytes
   nonlr-proj:        565. kBytes
   fftplans  :        172. kBytes
   grid      :        402. kBytes
   one-center:         31. kBytes
   wavefun   :        672. kBytes
 
     INWAV:  cpu time    0.0000: real time    0.0000
 Broyden mixing: mesh for mixing (old mesh)
   NGX =  9   NGY =  9   NGZ =  9
  (NGX  = 40   NGY  = 40   NGZ  = 40)
  gives a total of    729 points

 initial charge density was supplied:
 charge density of overlapping atoms calculated
 number of electron      28.0000000 magnetization      10.0000000
 keeping initial charge density in first step


--------------------------------------------------------------------------------------------------------


 Maximum index for non-local projection operator         1201
 Maximum index for augmentation-charges          561 (set IRDMAX)


--------------------------------------------------------------------------------------------------------


 First call to EWALD:  gamma=   0.624
 Maximum number of real-space cells 3x 3x 3
 Maximum number of reciprocal cells 3x 3x 3

    FEWALD:  cpu time    0.0012: real time    0.0012


--------------------------------------- Iteration      1(   1)  ---------------------------------------


    POTLOK:  cpu time    0.0062: real time    0.0063
    SETDIJ:  cpu time    0.0053: real time    0.0054
     EDDAV:  cpu time    0.4209: real time    0.4336
 BZINTS: Fermi energy: 19.153948; 28.000000 electrons
         Band energy:-137.269005;  BLOECHL correction: -0.123928
       DOS:  cpu time    0.0346: real time    0.0347
    --------------------------------------------
      LOOP:  cpu time    0.4670: real time    0.4799

 eigenvalue-minimisations  :  3588
 total energy-change (2. order) : 0.1851260E+03  (-0.1650347E+04)
 number of electron      28.0000000 magnetization      10.0000000
 augmentation part       28.0000000 magnetization      10.0000000

 Free energy of the ion-electron system (eV)
  ---------------------------------------------------
  alpha Z        PSCENC =       218.87048721
  Ewald energy   TEWEN  =     -3616.56080017
  -Hartree energ DENC   =     -1162.86386254
  -exchange      EXHF   =         0.00000000
  -V(xc)+E(xc)   XCENC  =       147.54620390
  PAW double counting   =      3997.93860218    -4177.34792201
  entropy T*S    EENTRO =         0.00000000
  eigenvalues    EBANDS =      -137.26900534
  atomic energy  EATOM  =      4914.81230811
  Solvation  Ediel_sol  =         0.00000000
  ---------------------------------------------------
  free energy    TOTEN  =       185.12601134 eV

  energy without entropy =      185.12601134  energy(sigma->0) =      185.12601134


--------------------------------------------------------------------------------------------------------




--------------------------------------- Iteration      1(   2)  ---------------------------------------


     EDDAV:  cpu time    0.3845: real time    0.3894
 BZINTS: Fermi energy: 12.155675; 28.000000 electrons
         Band energy:-333.523909;  BLOECHL correction: -0.072888
       DOS:  cpu time    0.0342: real time    0.0343
    --------------------------------------------
      LOOP:  cpu time    0.4187: real time    0.4237

 eigenvalue-minimisations  :  3420
 total energy-change (2. order) :-0.1962549E+03  (-0.1884766E+03)
 number of electron      28.0000000 magnetization      10.0000000
 augmentation part       28.0000000 magnetization      10.0000000

 Free energy of the ion-electron system (eV)
  ---------------------------------------------------
  alpha Z        PSCENC =       218.87048721
  Ewald energy   TEWEN  =     -3616.56080017
  -Hartree energ DENC   =     -1162.86386254
  -exchange      EXHF   =         0.00000000
  -V(xc)+E(xc)   XCENC  =       147.54620390
  PAW double counting   =      3997.93860218    -4177.34792201
  entropy T*S    EENTRO =         0.00000000
  eigenvalues    EBANDS =      -333.52390904
  atomic energy  EATOM  =      4914.81230811
  Solvation  Ediel_sol  =         0.00000000
  ---------------------------------------------------
  free energy    TOTEN  =       -11.12889236 eV

  energy without entropy =      -11.12889236  energy(sigma->0) =      -11.12889236


--------------------------------------------------------------------------------------------------------




--------------------------------------- Iteration      1(   3)  ---------------------------------------


     EDDAV:  cpu time    0.4268: real time    0.4280
 BZINTS: Fermi energy: 12.038301; 28.000000 electrons
         Band energy:-338.625049;  BLOECHL correction: -0.071300
       DOS:  cpu time    0.0335: real time    0.0335
    --------------------------------------------
      LOOP:  cpu time    0.4602: real time    0.4615

 eigenvalue-minimisations  :  3756
 total energy-change (2. order) :-0.5101140E+01  (-0.5094797E+01)
 number of electron      28.0000000 magnetization      10.0000000
 augmentation part       28.0000000 magnetization      10.0000000

 Free energy of the ion-electron system (eV)
  ---------------------------------------------------
  alpha Z        PSCENC =       218.87048721
  Ewald energy   TEWEN  =     -3616.56080017
  -Hartree energ DENC   =     -1162.86386254
  -exchange      EXHF   =         0.00000000
  -V(xc)+E(xc)   XCENC  =       147.54620390
  PAW double counting   =      3997.93860218    -4177.34792201
  entropy T*S    EENTRO =         0.00000000
  eigenvalues    EBANDS =      -338.62504912
  atomic energy  EATOM  =      4914.81230811
  Solvation  Ediel_sol  =         0.00000000
  ---------------------------------------------------
  free energy    TOTEN  =       -16.23003244 eV

  energy without entropy =      -16.23003244  energy(sigma->0) =      -16.23003244


--------------------------------------------------------------------------------------------------------




--------------------------------------- Iteration      1(   4)  ---------------------------------------


     EDDAV:  cpu time    0.4381: real time    0.4395
 BZINTS: Fermi energy: 12.038037; 28.000000 electrons
         Band energy:-338.664332;  BLOECHL correction: -0.071290
       DOS:  cpu time    0.0342: real time    0.0343
    --------------------------------------------
      LOOP:  cpu time    0.4724: real time    0.4738

 eigenvalue-minimisations  :  3792
 total energy-change (2. order) :-0.3928260E-01  (-0.3928663E-01)
 number of electron      28.0000000 magnetization      10.0000000
 augmentation part       28.0000000 magnetization      10.0000000

 Free energy of the ion-electron system (eV)
  ---------------------------------------------------
  alpha Z        PSCENC =       218.87048721
  Ewald energy   TEWEN  =     -3616.56080017
  -Hartree energ DENC   =     -1162.86386254
  -exchange      EXHF   =         0.00000000
  -V(xc)+E(xc)   XCENC  =       147.54620390
  PAW double counting   =      3997.93860218    -4177.34792201
  entropy T*S    EENTRO =         0.00000000
  eigenvalues    EBANDS =      -338.66433172
  atomic energy  EATOM  =      4914.81230811
  Solvation  Ediel_sol  =         0.00000000
  ---------------------------------------------------
  free energy    TOTEN  =       -16.26931504 eV

  energy without entropy =      -16.26931504  energy(sigma->0) =      -16.26931504


--------------------------------------------------------------------------------------------------------




--------------------------------------- Iteration      1(   5)  ---------------------------------------


     EDDAV:  cpu time    0.4387: real time    0.4406
 BZINTS: Fermi energy: 12.038036; 28.000000 electrons
         Band energy:-338.665050;  BLOECHL correction: -0.071290
       DOS:  cpu time    0.0315: real time    0.0316
    CHARGE:  cpu time    0.0109: real time    0.0110
    MIXING:  cpu time    0.0006: real time    0.0006
    --------------------------------------------
      LOOP:  cpu time    0.4817: real time    0.4838

 eigenvalue-minimisations  :  3876
 total energy-change (2. order) :-0.7182185E-03  (-0.7182460E-03)
 number of electron      28.0000047 magnetization       4.3580279
 augmentation part       15.9025154 magnetization       2.8337159

 Broyden mixing:
  rms(total) = 0.24974E+01    rms(broyden)= 0.24967E+01
  rms(prec ) = 0.39489E+01
  weight for this iteration     100.00

 Free energy of the ion-electron system (eV)
  ---------------------------------------------------
  alpha Z        PSCENC =       218.87048721
  Ewald energy   TEWEN  =     -3616.56080017
  -Hartree energ DENC   =     -1162.86386254
  -exchange      EXHF   =         0.00000000
  -V(xc)+E(xc)   XCENC  =       147.54620390
  PAW double counting   =      3997.93860218    -4177.34792201
  entropy T*S    EENTRO =         0.00000000
  eigenvalues    EBANDS =      -338.66504994
  atomic energy  EATOM  =      4914.81230811
  Solvation  Ediel_sol  =         0.00000000
  ---------------------------------------------------
  free energy    TOTEN  =       -16.27003326 eV

  energy without entropy =      -16.27003326  energy(sigma->0) =      -16.27003326


--------------------------------------------------------------------------------------------------------




--------------------------------------- Iteration      1(   6)  ---------------------------------------


    POTLOK:  cpu time    0.0045: real time    0.0046
    SETDIJ:  cpu time    0.0050: real time    0.0050
     EDDAV:  cpu time    0.3832: real time    0.3841
 BZINTS: Fermi energy:  9.267271; 28.000000 electrons
         Band energy:-409.523855;  BLOECHL correction: -0.036077
       DOS:  cpu time    0.0330: real time    0.0331
    CHARGE:  cpu time    0.0107: real time    0.0107
    MIXING:  cpu time    0.0004: real time    0.0005
    --------------------------------------------
      LOOP:  cpu time    0.4368: real time    0.4380

 eigenvalue-minimisations  :  3420
 total energy-change (2. order) :-0.1638413E+00  (-0.7495154E+00)
 number of electron      28.0000049 magnetization       4.5338452
 augmentation part       17.0640487 magnetization       3.5519695

 Broyden mixing:
  rms(total) = 0.69228E+00    rms(broyden)= 0.69065E+00
  rms(prec ) = 0.86516E+00
  weight for this iteration     100.00

 eigenvalues of (default mixing * dielectric matrix)
  average eigenvalue GAMMA=   0.8368
  0.8368

 Free energy of the ion-electron system (eV)
  ---------------------------------------------------
  alpha Z        PSCENC =       218.87048721
  Ewald energy   TEWEN  =     -3616.56080017
  -Hartree energ DENC   =     -1089.12458587
  -exchange      EXHF   =         0.00000000
  -V(xc)+E(xc)   XCENC  =       140.64949218
  PAW double counting   =      4113.55232406    -4289.10924510
  entropy T*S    EENTRO =         0.00000000
  eigenvalues    EBANDS =      -409.52385495
  atomic energy  EATOM  =      4914.81230811
  Solvation  Ediel_sol  =         0.00000000
  ---------------------------------------------------
  free energy    TOTEN  =       -16.43387454 eV

  energy without entropy =      -16.43387454  energy(sigma->0) =      -16.43387454


--------------------------------------------------------------------------------------------------------




--------------------------------------- Iteration      1(   7)  ---------------------------------------


    POTLOK:  cpu time    0.0045: real time    0.0046
    SETDIJ:  cpu time    0.0047: real time    0.0047
     EDDAV:  cpu time    0.3844: real time    0.3854
 BZINTS: Fermi energy:  9.761390; 28.000000 electrons
         Band energy:-395.203468;  BLOECHL correction: -0.033757
       DOS:  cpu time    0.0332: real time    0.0333
    CHARGE:  cpu time    0.0105: real time    0.0105
    MIXING:  cpu time    0.0003: real time    0.0003
    --------------------------------------------
      LOOP:  cpu time    0.4376: real time    0.4387

 eigenvalue-minimisations  :  3396
 total energy-change (2. order) :-0.7101705E-01  (-0.6129899E-01)
 number of electron      28.0000048 magnetization       4.4460003
 augmentation part       16.7731771 magnetization       3.5282664

 Broyden mixing:
  rms(total) = 0.43082E+00    rms(broyden)= 0.43050E+00
  rms(prec ) = 0.52344E+00
  weight for this iteration     100.00

 eigenvalues of (default mixing * dielectric matrix)
  average eigenvalue GAMMA=   0.7670
  0.9876  0.5465

 Free energy of the ion-electron system (eV)
  ---------------------------------------------------
  alpha Z        PSCENC =       218.87048721
  Ewald energy   TEWEN  =     -3616.56080017
  -Hartree energ DENC   =     -1099.07366521
  -exchange      EXHF   =         0.00000000
  -V(xc)+E(xc)   XCENC  =       141.32961304
  PAW double counting   =      4218.94387950    -4399.62324593
  entropy T*S    EENTRO =         0.00000000
  eigenvalues    EBANDS =      -395.20346814
  atomic energy  EATOM  =      4914.81230811
  Solvation  Ediel_sol  =         0.00000000
  ---------------------------------------------------
  free energy    TOTEN  =       -16.50489159 eV

  energy without entropy =      -16.50489159  energy(sigma->0) =      -16.50489159


--------------------------------------------------------------------------------------------------------




--------------------------------------- Iteration      1(   8)  ---------------------------------------


    POTLOK:  cpu time    0.0045: real time    0.0046
    SETDIJ:  cpu time    0.0047: real time    0.0047
     EDDAV:  cpu time    0.4260: real time    0.4274
 BZINTS: Fermi energy:  9.690037; 28.000000 electrons
         Band energy:-397.416130;  BLOECHL correction: -0.033988
       DOS:  cpu time    0.0339: real time    0.0340
    CHARGE:  cpu time    0.0108: real time    0.0109
    MIXING:  cpu time    0.0003: real time    0.0003
    --------------------------------------------
      LOOP:  cpu time    0.4803: real time    0.4818

 eigenvalue-minimisations  :  3708
 total energy-change (2. order) :-0.1183089E-01  (-0.1465797E-02)
 number of electron      28.0000048 magnetization       4.3708087
 augmentation part       16.8078643 magnetization       3.4531217

 Broyden mixing:
  rms(total) = 0.13659E+00    rms(broyden)= 0.13648E+00
  rms(prec ) = 0.21359E+00
  weight for this iteration     100.00

 eigenvalues of (default mixing * dielectric matrix)
  average eigenvalue GAMMA=   1.0468
  1.6976  0.8550  0.5877

 Free energy of the ion-electron system (eV)
  ---------------------------------------------------
  alpha Z        PSCENC =       218.87048721
  Ewald energy   TEWEN  =     -3616.56080017
  -Hartree energ DENC   =     -1095.21861646
  -exchange      EXHF   =         0.00000000
  -V(xc)+E(xc)   XCENC  =       141.10761710
  PAW double counting   =      4267.06349111    -4449.17507942
  entropy T*S    EENTRO =         0.00000000
  eigenvalues    EBANDS =      -397.41612994
  atomic energy  EATOM  =      4914.81230811
  Solvation  Ediel_sol  =         0.00000000
  ---------------------------------------------------
  free energy    TOTEN  =       -16.51672248 eV

  energy without entropy =      -16.51672248  energy(sigma->0) =      -16.51672248


--------------------------------------------------------------------------------------------------------




--------------------------------------- Iteration      1(   9)  ---------------------------------------


    POTLOK:  cpu time    0.0045: real time    0.0050
    SETDIJ:  cpu time    0.0050: real time    0.0050
     EDDAV:  cpu time    0.4088: real time    0.4098
 BZINTS: Fermi energy:  9.612594; 28.000000 electrons
         Band energy:-399.696720;  BLOECHL correction: -0.034510
       DOS:  cpu time    0.0339: real time    0.0340
    CHARGE:  cpu time    0.0107: real time    0.0107
    MIXING:  cpu time    0.0003: real time    0.0003
    --------------------------------------------
      LOOP:  cpu time    0.4632: real time    0.4647

 eigenvalue-minimisations  :  3624
 total energy-change (2. order) : 0.7422203E-02  (-0.5259301E-03)
 number of electron      28.0000048 magnetization       4.4018993
 augmentation part       16.8434793 magnetization       3.4825073

 Broyden mixing:
  rms(total) = 0.33592E-01    rms(broyden)= 0.33524E-01
  rms(prec ) = 0.45395E-01
  weight for this iteration     100.00

 eigenvalues of (default mixing * dielectric matrix)
  average eigenvalue GAMMA=   1.1832
  2.3322  1.0605  0.6941  0.6458

 Free energy of the ion-electron system (eV)
  ---------------------------------------------------
  alpha Z        PSCENC =       218.87048721
  Ewald energy   TEWEN  =     -3616.56080017
  -Hartree energ DENC   =     -1090.34390325
  -exchange      EXHF   =         0.00000000
  -V(xc)+E(xc)   XCENC  =       140.86509386
  PAW double counting   =      4343.41995175    -4527.87571782
  entropy T*S    EENTRO =         0.00000000
  eigenvalues    EBANDS =      -399.69671995
  atomic energy  EATOM  =      4914.81230811
  Solvation  Ediel_sol  =         0.00000000
  ---------------------------------------------------
  free energy    TOTEN  =       -16.50930027 eV

  energy without entropy =      -16.50930027  energy(sigma->0) =      -16.50930027


--------------------------------------------------------------------------------------------------------




--------------------------------------- Iteration      1(  10)  ---------------------------------------


    POTLOK:  cpu time    0.0044: real time    0.0045
    SETDIJ:  cpu time    0.0046: real time    0.0047
     EDDAV:  cpu time    0.3823: real time    0.3834
 BZINTS: Fermi energy:  9.625837; 28.000000 electrons
         Band energy:-399.186830;  BLOECHL correction: -0.034678
       DOS:  cpu time    0.0339: real time    0.0340
    CHARGE:  cpu time    0.0107: real time    0.0107
    MIXING:  cpu time    0.0004: real time    0.0004
    --------------------------------------------
      LOOP:  cpu time    0.4363: real time    0.4376

 eigenvalue-minimisations  :  3420
 total energy-change (2. order) : 0.5354063E-04  (-0.2165916E-03)
 number of electron      28.0000048 magnetization       4.4069763
 augmentation part       16.8320540 magnetization       3.4850121

 Broyden mixing:
  rms(total) = 0.43695E-02    rms(broyden)= 0.43667E-02
  rms(prec ) = 0.54714E-02
  weight for this iteration     100.00

 eigenvalues of (default mixing * dielectric matrix)
  average eigenvalue GAMMA=   1.1316
  2.4344  1.1033  0.7817  0.7060  0.6325

 Free energy of the ion-electron system (eV)
  ---------------------------------------------------
  alpha Z        PSCENC =       218.87048721
  Ewald energy   TEWEN  =     -3616.56080017
  -Hartree energ DENC   =     -1089.92298216
  -exchange      EXHF   =         0.00000000
  -V(xc)+E(xc)   XCENC  =       140.87115603
  PAW double counting   =      4372.52571305    -4557.91829888
  entropy T*S    EENTRO =         0.00000000
  eigenvalues    EBANDS =      -399.18682991
  atomic energy  EATOM  =      4914.81230811
  Solvation  Ediel_sol  =         0.00000000
  ---------------------------------------------------
  free energy    TOTEN  =       -16.50924673 eV

  energy without entropy =      -16.50924673  energy(sigma->0) =      -16.50924673


--------------------------------------------------------------------------------------------------------




--------------------------------------- Iteration      1(  11)  ---------------------------------------


    POTLOK:  cpu time    0.0045: real time    0.0046
    SETDIJ:  cpu time    0.0046: real time    0.0046
     EDDAV:  cpu time    0.3949: real time    0.3958
 BZINTS: Fermi energy:  9.624321; 28.000000 electrons
         Band energy:-399.217672;  BLOECHL correction: -0.034693
       DOS:  cpu time    0.0321: real time    0.0322
    CHARGE:  cpu time    0.0105: real time    0.0106
    MIXING:  cpu time    0.0003: real time    0.0003
    --------------------------------------------
      LOOP:  cpu time    0.4470: real time    0.4481

 eigenvalue-minimisations  :  3528
 total energy-change (2. order) :-0.6829973E-04  (-0.5722036E-05)
 number of electron      28.0000048 magnetization       4.4062710
 augmentation part       16.8325679 magnetization       3.4845778

 Broyden mixing:
  rms(total) = 0.24674E-02    rms(broyden)= 0.24653E-02
  rms(prec ) = 0.33356E-02
  weight for this iteration     100.00

 eigenvalues of (default mixing * dielectric matrix)
  average eigenvalue GAMMA=   1.2931
  2.2957  2.2957  1.0768  0.6320  0.7512  0.7069

 Free energy of the ion-electron system (eV)
  ---------------------------------------------------
  alpha Z        PSCENC =       218.87048721
  Ewald energy   TEWEN  =     -3616.56080017
  -Hartree energ DENC   =     -1089.91350109
  -exchange      EXHF   =         0.00000000
  -V(xc)+E(xc)   XCENC  =       140.87346486
  PAW double counting   =      4373.83277214    -4559.20637387
  entropy T*S    EENTRO =         0.00000000
  eigenvalues    EBANDS =      -399.21767221
  atomic energy  EATOM  =      4914.81230811
  Solvation  Ediel_sol  =         0.00000000
  ---------------------------------------------------
  free energy    TOTEN  =       -16.50931503 eV

  energy without entropy =      -16.50931503  energy(sigma->0) =      -16.50931503


--------------------------------------------------------------------------------------------------------




--------------------------------------- Iteration      1(  12)  ---------------------------------------


    POTLOK:  cpu time    0.0044: real time    0.0045
    SETDIJ:  cpu time    0.0046: real time    0.0047
     EDDAV:  cpu time    0.4231: real time    0.4247
 BZINTS: Fermi energy:  9.622836; 28.000000 electrons
         Band energy:-399.250889;  BLOECHL correction: -0.034705
       DOS:  cpu time    0.0348: real time    0.0349
    CHARGE:  cpu time    0.0104: real time    0.0104
    MIXING:  cpu time    0.0004: real time    0.0004
    --------------------------------------------
      LOOP:  cpu time    0.4778: real time    0.4796

 eigenvalue-minimisations  :  3804
 total energy-change (2. order) :-0.7167476E-05  (-0.4573717E-06)
 number of electron      28.0000048 magnetization       4.4059555
 augmentation part       16.8332586 magnetization       3.4845556

 Broyden mixing:
  rms(total) = 0.95031E-03    rms(broyden)= 0.94987E-03
  rms(prec ) = 0.13300E-02
  weight for this iteration     100.00

 eigenvalues of (default mixing * dielectric matrix)
  average eigenvalue GAMMA=   1.2312
  2.4058  2.2816  1.0876  0.8164  0.7372  0.6448  0.6448

 Free energy of the ion-electron system (eV)
  ---------------------------------------------------
  alpha Z        PSCENC =       218.87048721
  Ewald energy   TEWEN  =     -3616.56080017
  -Hartree energ DENC   =     -1089.96591596
  -exchange      EXHF   =         0.00000000
  -V(xc)+E(xc)   XCENC  =       140.87625242
  PAW double counting   =      4374.80494755    -4560.09571209
  entropy T*S    EENTRO =         0.00000000
  eigenvalues    EBANDS =      -399.25088926
  atomic energy  EATOM  =      4914.81230811
  Solvation  Ediel_sol  =         0.00000000
  ---------------------------------------------------
  free energy    TOTEN  =       -16.50932220 eV

  energy without entropy =      -16.50932220  energy(sigma->0) =      -16.50932220


--------------------------------------------------------------------------------------------------------




--------------------------------------- Iteration      1(  13)  ---------------------------------------


    POTLOK:  cpu time    0.0045: real time    0.0046
    SETDIJ:  cpu time    0.0046: real time    0.0046
     EDDAV:  cpu time    0.3933: real time    0.3944
 BZINTS: Fermi energy:  9.623550; 28.000000 electrons
         Band energy:-399.236367;  BLOECHL correction: -0.034696
       DOS:  cpu time    0.0330: real time    0.0331
    CHARGE:  cpu time    0.0105: real time    0.0106
    MIXING:  cpu time    0.0004: real time    0.0004
    --------------------------------------------
      LOOP:  cpu time    0.4462: real time    0.4476

 eigenvalue-minimisations  :  3528
 total energy-change (2. order) : 0.7837652E-05  (-0.1636640E-06)
 number of electron      28.0000048 magnetization       4.4057928
 augmentation part       16.8329079 magnetization       3.4842511

 Broyden mixing:
  rms(total) = 0.14977E-03    rms(broyden)= 0.14798E-03
  rms(prec ) = 0.18030E-03
  weight for this iteration     100.00

 eigenvalues of (default mixing * dielectric matrix)
  average eigenvalue GAMMA=   1.2902
  2.5327  2.4450  1.4753  1.0653  0.7988  0.6262  0.6890  0.6890

 Free energy of the ion-electron system (eV)
  ---------------------------------------------------
  alpha Z        PSCENC =       218.87048721
  Ewald energy   TEWEN  =     -3616.56080017
  -Hartree energ DENC   =     -1089.97353301
  -exchange      EXHF   =         0.00000000
  -V(xc)+E(xc)   XCENC  =       140.87602717
  PAW double counting   =      4374.92879978    -4560.22623693
  entropy T*S    EENTRO =         0.00000000
  eigenvalues    EBANDS =      -399.23636651
  atomic energy  EATOM  =      4914.81230811
  Solvation  Ediel_sol  =         0.00000000
  ---------------------------------------------------
  free energy    TOTEN  =       -16.50931436 eV

  energy without entropy =      -16.50931436  energy(sigma->0) =      -16.50931436


--------------------------------------------------------------------------------------------------------




--------------------------------------- Iteration      1(  14)  ---------------------------------------


    POTLOK:  cpu time    0.0045: real time    0.0046
    SETDIJ:  cpu time    0.0046: real time    0.0046
     EDDAV:  cpu time    0.3244: real time    0.3254
 BZINTS: Fermi energy:  9.623667; 28.000000 electrons
         Band energy:-399.234161;  BLOECHL correction: -0.034695
       DOS:  cpu time    0.0304: real time    0.0304
    CHARGE:  cpu time    0.0105: real time    0.0105
    MIXING:  cpu time    0.0004: real time    0.0004
    --------------------------------------------
      LOOP:  cpu time    0.3748: real time    0.3760

 eigenvalue-minimisations  :  2628
 total energy-change (2. order) : 0.3622163E-06  (-0.9348728E-08)
 number of electron      28.0000048 magnetization       4.4058188
 augmentation part       16.8328532 magnetization       3.4842656

 Broyden mixing:
  rms(total) = 0.68453E-04    rms(broyden)= 0.66887E-04
  rms(prec ) = 0.88315E-04
  weight for this iteration     100.00

 eigenvalues of (default mixing * dielectric matrix)
  average eigenvalue GAMMA=   1.2107
  2.6193  2.4608  1.2873  1.0503  0.8234  0.6869  0.6869  0.6406  0.6406

 Free energy of the ion-electron system (eV)
  ---------------------------------------------------
  alpha Z        PSCENC =       218.87048721
  Ewald energy   TEWEN  =     -3616.56080017
  -Hartree energ DENC   =     -1089.97549373
  -exchange      EXHF   =         0.00000000
  -V(xc)+E(xc)   XCENC  =       140.87591989
  PAW double counting   =      4374.92253784    -4560.22011239
  entropy T*S    EENTRO =         0.00000000
  eigenvalues    EBANDS =      -399.23416076
  atomic energy  EATOM  =      4914.81230811
  Solvation  Ediel_sol  =         0.00000000
  ---------------------------------------------------
  free energy    TOTEN  =       -16.50931400 eV

  energy without entropy =      -16.50931400  energy(sigma->0) =      -16.50931400


--------------------------------------------------------------------------------------------------------




--------------------------------------- Iteration      1(  15)  ---------------------------------------


    POTLOK:  cpu time    0.0045: real time    0.0046
    SETDIJ:  cpu time    0.0047: real time    0.0047
     EDDAV:  cpu time    0.2507: real time    0.2517
 BZINTS: Fermi energy:  9.623627; 28.000000 electrons
         Band energy:-399.235200;  BLOECHL correction: -0.034695
       DOS:  cpu time    0.0330: real time    0.0331
    CHARGE:  cpu time    0.0145: real time    0.0146
    MIXING:  cpu time    0.0004: real time    0.0004
    --------------------------------------------
      LOOP:  cpu time    0.3079: real time    0.3091

 eigenvalue-minimisations  :  1680
 total energy-change (2. order) :-0.1393746E-06  (-0.8411718E-09)
 number of electron      28.0000048 magnetization       4.4057781
 augmentation part       16.8328759 magnetization       3.4842342

 Broyden mixing:
  rms(total) = 0.26976E-04    rms(broyden)= 0.26834E-04
  rms(prec ) = 0.31446E-04
  weight for this iteration     100.00

 eigenvalues of (default mixing * dielectric matrix)
  average eigenvalue GAMMA=   1.2017
  2.6403  2.4753  1.2569  1.0705  1.0705  0.8323  0.6993  0.6993  0.6300  0.6426

 Free energy of the ion-electron system (eV)
  ---------------------------------------------------
  alpha Z        PSCENC =       218.87048721
  Ewald energy   TEWEN  =     -3616.56080017
  -Hartree energ DENC   =     -1089.97488517
  -exchange      EXHF   =         0.00000000
  -V(xc)+E(xc)   XCENC  =       140.87594536
  PAW double counting   =      4374.91875042    -4560.21592035
  entropy T*S    EENTRO =         0.00000000
  eigenvalues    EBANDS =      -399.23519954
  atomic energy  EATOM  =      4914.81230811
  Solvation  Ediel_sol  =         0.00000000
  ---------------------------------------------------
  free energy    TOTEN  =       -16.50931414 eV

  energy without entropy =      -16.50931414  energy(sigma->0) =      -16.50931414


--------------------------------------------------------------------------------------------------------




--------------------------------------- Iteration      1(  16)  ---------------------------------------


    POTLOK:  cpu time    0.0046: real time    0.0047
    SETDIJ:  cpu time    0.0047: real time    0.0048
     EDDAV:  cpu time    0.2555: real time    0.2563
 BZINTS: Fermi energy:  9.623638; 28.000000 electrons
         Band energy:-399.235072;  BLOECHL correction: -0.034695
       DOS:  cpu time    0.0340: real time    0.0341
    CHARGE:  cpu time    0.0106: real time    0.0106
    MIXING:  cpu time    0.0005: real time    0.0005
    --------------------------------------------
      LOOP:  cpu time    0.3099: real time    0.3109

 eigenvalue-minimisations  :  1680
 total energy-change (2. order) : 0.2291126E-06  (-0.8674983E-10)
 number of electron      28.0000048 magnetization       4.4057940
 augmentation part       16.8328725 magnetization       3.4842504

 Broyden mixing:
  rms(total) = 0.11789E-04    rms(broyden)= 0.11695E-04
  rms(prec ) = 0.12656E-04
  weight for this iteration     100.00

 eigenvalues of (default mixing * dielectric matrix)
  average eigenvalue GAMMA=   1.2580
  2.6653  2.4609  2.0363  1.3130  1.0512  0.8012  0.8012  0.7200  0.7200  0.6256
  0.6433

 Free energy of the ion-electron system (eV)
  ---------------------------------------------------
  alpha Z        PSCENC =       218.87048721
  Ewald energy   TEWEN  =     -3616.56080017
  -Hartree energ DENC   =     -1089.97490621
  -exchange      EXHF   =         0.00000000
  -V(xc)+E(xc)   XCENC  =       140.87591846
  PAW double counting   =      4374.90042317    -4560.19767288
  entropy T*S    EENTRO =         0.00000000
  eigenvalues    EBANDS =      -399.23507160
  atomic energy  EATOM  =      4914.81230811
  Solvation  Ediel_sol  =         0.00000000
  ---------------------------------------------------
  free energy    TOTEN  =       -16.50931391 eV

  energy without entropy =      -16.50931391  energy(sigma->0) =      -16.50931391


--------------------------------------------------------------------------------------------------------




--------------------------------------- Iteration      1(  17)  ---------------------------------------


    POTLOK:  cpu time    0.0045: real time    0.0050
    SETDIJ:  cpu time    0.0050: real time    0.0050
     EDDAV:  cpu time    0.2521: real time    0.2527
 BZINTS: Fermi energy:  9.623641; 28.000000 electrons
         Band energy:-399.235002;  BLOECHL correction: -0.034695
       DOS:  cpu time    0.0339: real time    0.0339
    CHARGE:  cpu time    0.0106: real time    0.0108
    MIXING:  cpu time    0.0005: real time    0.0005
    --------------------------------------------
      LOOP:  cpu time    0.3066: real time    0.3079

 eigenvalue-minimisations  :  1680
 total energy-change (2. order) :-0.1191165E-06  (-0.1885565E-10)
 number of electron      28.0000048 magnetization       4.4057935
 augmentation part       16.8328717 magnetization       3.4842491

 Broyden mixing:
  rms(total) = 0.30414E-05    rms(broyden)= 0.30202E-05
  rms(prec ) = 0.34854E-05
  weight for this iteration     100.00

 eigenvalues of (default mixing * dielectric matrix)
  average eigenvalue GAMMA=   1.2686
  2.7196  2.5431  2.5431  1.2518  1.0120  1.0120  0.8172  0.7012  0.7012  0.6660
  0.6223  0.6338

 Free energy of the ion-electron system (eV)
  ---------------------------------------------------
  alpha Z        PSCENC =       218.87048721
  Ewald energy   TEWEN  =     -3616.56080017
  -Hartree energ DENC   =     -1089.97457480
  -exchange      EXHF   =         0.00000000
  -V(xc)+E(xc)   XCENC  =       140.87591113
  PAW double counting   =      4374.88796567    -4560.18560898
  entropy T*S    EENTRO =         0.00000000
  eigenvalues    EBANDS =      -399.23500220
  atomic energy  EATOM  =      4914.81230811
  Solvation  Ediel_sol  =         0.00000000
  ---------------------------------------------------
  free energy    TOTEN  =       -16.50931403 eV

  energy without entropy =      -16.50931403  energy(sigma->0) =      -16.50931403


--------------------------------------------------------------------------------------------------------




--------------------------------------- Iteration      1(  18)  ---------------------------------------


    POTLOK:  cpu time    0.0045: real time    0.0047
    SETDIJ:  cpu time    0.0046: real time    0.0047
     EDDAV:  cpu time    0.2478: real time    0.2484
 BZINTS: Fermi energy:  9.623643; 28.000000 electrons
         Band energy:-399.234953;  BLOECHL correction: -0.034695
       DOS:  cpu time    0.0339: real time    0.0340
    --------------------------------------------
      LOOP:  cpu time    0.2908: real time    0.2918

 eigenvalue-minimisations  :  1680
 total energy-change (2. order) : 0.4391950E-08  (-0.2404532E-11)
 number of electron      28.0000048 magnetization       4.4057935
 augmentation part       16.8328717 magnetization       3.4842491

 Free energy of the ion-electron system (eV)
  ---------------------------------------------------
  alpha Z        PSCENC =       218.87048721
  Ewald energy   TEWEN  =     -3616.56080017
  -Hartree energ DENC   =     -1089.97459257
  -exchange      EXHF   =         0.00000000
  -V(xc)+E(xc)   XCENC  =       140.87591021
  PAW double counting   =      4374.88635224    -4560.18402590
  entropy T*S    EENTRO =         0.00000000
  eigenvalues    EBANDS =      -399.23495315
  atomic energy  EATOM  =      4914.81230811
  Solvation  Ediel_sol  =         0.00000000
  ---------------------------------------------------
  free energy    TOTEN  =       -16.50931402 eV

  energy without entropy =      -16.50931402  energy(sigma->0) =      -16.50931402


--------------------------------------------------------------------------------------------------------




 average (electrostatic) potential at core
  the test charge radii are     0.9500
  (the norm of the test charge is              1.0000)
       1 -73.6628       2 -73.6628
 
 
 
 E-fermi :   9.6236     XC(G=0): -13.6247     alpha+bet :-17.4163


 spin component 1

 k-point     1 :       0.0500    0.0500    0.0500
  band No.  band energies     occupation 
      1     -44.5592      1.00000
      2     -44.5592      1.00000
      3     -44.5449      1.00000
      4     -44.2877      1.00000
      5     -44.2727      1.00000
      6     -44.2727      1.00000
      7       1.3963      1.00000
      8       4.9398      1.00000
      9       4.9398      1.00000
     10       7.3067      1.00000
     11       7.3067      1.00000
     12       7.4324      1.00000
     13       8.5824      1.00000
     14       8.5824      1.00000
     15       9.4958      1.00000
     16       9.6881      0.60074
     17       9.6881      0.00980
     18      19.1984      0.00000
     19      19.1984      0.00000
     20      19.4401      0.00000
     21      25.8113      0.00000
     22      25.8113      0.00000
     23      30.6921      0.00000
     24      33.3494      0.00000

 k-point     2 :       0.1500    0.0500    0.0500
  band No.  band energies     occupation 
      1     -44.5653      1.00000
      2     -44.5445      1.00000
      3     -44.5229      1.00000
      4     -44.3195      1.00000
      5     -44.2861      1.00000
      6     -44.2783      1.00000
      7       1.8000      1.00000
      8       5.1077      1.00000
      9       5.1097      1.00000
     10       7.2480      1.00000
     11       7.2961      1.00000
     12       7.6006      1.00000
     13       8.4162      1.00000
     14       8.6572      1.00000
     15       9.1050      1.00000
     16       9.3734      1.02104
     17       9.6667      0.13607
     18      17.0977      0.00000
     19      19.9174      0.00000
     20      20.0942      0.00000
     21      25.9628      0.00000
     22      27.1441      0.00000
     23      31.5532      0.00000
     24      32.1453      0.00000

 k-point     3 :       0.2500    0.0500    0.0500
  band No.  band energies     occupation 
      1     -44.5625      1.00000
      2     -44.5167      1.00000
      3     -44.4922      1.00000
      4     -44.3670      1.00000
      5     -44.3115      1.00000
      6     -44.2984      1.00000
      7       2.5656      1.00000
      8       5.3688      1.00000
      9       5.4288      1.00000
     10       7.2441      1.00000
     11       7.2890      1.00000
     12       7.8433      1.00000
     13       8.1097      1.00000
     14       8.6075      1.00000
     15       8.7963      1.00000
     16       8.8897      1.00000
     17       9.4869      1.03924
     18      14.5746      0.00000
     19      21.1867      0.00000
     20      21.3570      0.00000
     21      26.2954      0.00000
     22      27.9709      0.00000
     23      29.6294      0.00000
     24      31.2955      0.00000

 k-point     4 :       0.3500    0.0500    0.0500
  band No.  band energies     occupation 
      1     -44.5476      1.00000
      2     -44.4788      1.00000
      3     -44.4540      1.00000
      4     -44.4229      1.00000
      5     -44.3470      1.00000
      6     -44.3298      1.00000
      7       3.5879      1.00000
      8       5.5415      1.00000
      9       5.8738      1.00000
     10       7.2471      1.00000
     11       7.3228      1.00000
     12       7.7696      1.00000
     13       8.1314      1.00000
     14       8.1516      1.00000
     15       8.3939      1.00000
     16       9.0203      1.00000
     17       9.2015      1.03863
     18      12.2827      0.00000
     19      22.7937      0.00000
     20      23.0059      0.00000
     21      26.8762      0.00000
     22      27.8752      0.00000
     23      28.6090      0.00000
     24      29.1464      0.00000

 k-point     5 :       0.4500    0.0500    0.0500
  band No.  band energies     occupation 
      1     -44.5190      1.00000
      2     -44.4759      1.00000
      3     -44.4349      1.00000
      4     -44.4118      1.00000
      5     -44.3894      1.00000
      6     -44.3689      1.00000
      7       4.6404      1.00000
      8       5.3584      1.00000
      9       6.3960      1.00000
     10       6.9188      1.00000
     11       7.5004      1.00000
     12       7.7326      1.00000
     13       7.7636      1.00000
     14       7.9865      1.00000
     15       8.5004      1.00000
     16       8.8586      1.00000
     17       9.4842      0.98555
     18      10.5198      0.00000
     19      24.5319      0.00000
     20      24.9032      0.00000
     21      26.2267      0.00000
     22      26.9659      0.00000
     23      27.8216      0.00000
     24      29.2508      0.00000

 k-point     6 :       0.1500    0.1500    0.0500
  band No.  band energies     occupation 
      1     -44.5794      1.00000
      2     -44.5357      1.00000
      3     -44.4907      1.00000
      4     -44.3607      1.00000
      5     -44.2963      1.00000
      6     -44.2728      1.00000
      7       2.1879      1.00000
      8       5.2406      1.00000
      9       5.2992      1.00000
     10       7.0954      1.00000
     11       7.2391      1.00000
     12       7.8717      1.00000
     13       8.4405      1.00000
     14       8.6125      1.00000
     15       8.6256      1.00000
     16       9.1504      1.00691
     17       9.7357      0.03155
     18      17.1952      0.00000
     19      18.2796      0.00000
     20      20.6495      0.00000
     21      26.6288      0.00000
     22      28.5398      0.00000
     23      29.9222      0.00000
     24      31.9698      0.00000

 k-point     7 :       0.2500    0.1500    0.0500
  band No.  band energies     occupation 
      1     -44.5886      1.00000
      2     -44.5101      1.00000
      3     -44.4527      1.00000
      4     -44.4159      1.00000
      5     -44.3193      1.00000
      6     -44.2803      1.00000
      7       2.9144      1.00000
      8       5.4568      1.00000
      9       5.6219      1.00000
     10       6.9898      1.00000
     11       7.1837      1.00000
     12       8.1068      1.00000
     13       8.2018      1.00000
     14       8.2844      1.00000
     15       8.7225      1.00000
     16       8.7260      1.00000
     17       9.6894      0.28961
     18      14.9831      0.00000
     19      19.0109      0.00000
     20      21.7944      0.00000
     21      27.0202      0.00000
     22      27.7476      0.00000
     23      29.9238      0.00000
     24      30.6410      0.00000

 k-point     8 :       0.3500    0.1500    0.0500
  band No.  band energies     occupation 
      1     -44.5844      1.00000
      2     -44.4746      1.00000
      3     -44.4739      1.00000
      4     -44.4115      1.00000
      5     -44.3519      1.00000
      6     -44.3013      1.00000
      7       3.8569      1.00000
      8       5.5965      1.00000
      9       6.0131      1.00000
     10       6.9659      1.00000
     11       7.1201      1.00000
     12       7.6683      1.00000
     13       8.0949      1.00000
     14       8.3388      1.00000
     15       8.5656      1.00000
     16       8.9645      1.00000
     17       9.4978      0.92408
     18      12.6527      0.00000
     19      20.3751      0.00000
     20      23.3108      0.00000
     21      25.6600      0.00000
     22      27.5890      0.00000
     23      28.7784      0.00000
     24      30.9257      0.00000

 k-point     9 :       0.4500    0.1500    0.0500
  band No.  band energies     occupation 
      1     -44.5633      1.00000
      2     -44.5253      1.00000
      3     -44.4334      1.00000
      4     -44.3912      1.00000
      5     -44.3706      1.00000
      6     -44.3326      1.00000
      7       4.7813      1.00000
      8       5.4049      1.00000
      9       6.4381      1.00000
     10       6.8162      1.00000
     11       7.1512      1.00000
     12       7.3570      1.00000
     13       8.0565      1.00000
     14       8.1298      1.00000
     15       8.8906      1.00000
     16       9.2093      1.00000
     17       9.5421      0.77899
     18      10.7644      0.00000
     19      21.9640      0.00000
     20      23.7286      0.00000
     21      25.0462      0.00000
     22      26.8822      0.00000
     23      28.4943      0.00000
     24      29.8469      0.00000

 k-point    10 :       0.2500    0.2500    0.0500
  band No.  band energies     occupation 
      1     -44.6117      1.00000
      2     -44.4895      1.00000
      3     -44.4757      1.00000
      4     -44.4094      1.00000
      5     -44.3370      1.00000
      6     -44.2732      1.00000
      7       3.5375      1.00000
      8       5.5117      1.00000
      9       6.0155      1.00000
     10       6.7730      1.00000
     11       7.1547      1.00000
     12       7.5999      1.00000
     13       8.4280      1.00000
     14       8.4299      1.00000
     15       8.6244      1.00000
     16       8.6664      1.00000
     17       9.8087     -0.03373
     18      14.8626      0.00000
     19      17.4645      0.00000
     20      22.7535      0.00000
     21      25.3829      0.00000
     22      27.3661      0.00000
     23      30.0595      0.00000
     24      32.3854      0.00000

 k-point    11 :       0.3500    0.2500    0.0500
  band No.  band energies     occupation 
      1     -44.6209      1.00000
      2     -44.5341      1.00000
      3     -44.4607      1.00000
      4     -44.3678      1.00000
      5     -44.3626      1.00000
      6     -44.2805      1.00000
      7       4.2628      1.00000
      8       5.4688      1.00000
      9       6.4686      1.00000
     10       6.6653      1.00000
     11       7.1906      1.00000
     12       7.2443      1.00000
     13       8.2740      1.00000
     14       8.4062      1.00000
     15       8.8109      1.00000
     16       9.0709      1.02184
     17       9.7588      0.00414
     18      13.0478      0.00000
     19      18.1023      0.00000
     20      23.1671      0.00000
     21      24.0649      0.00000
     22      27.8477      0.00000
     23      28.7847      0.00000
     24      31.4403      0.00000

 k-point    12 :       0.4500    0.2500    0.0500
  band No.  band energies     occupation 
      1     -44.6112      1.00000
      2     -44.5812      1.00000
      3     -44.4275      1.00000
      4     -44.3936      1.00000
      5     -44.3305      1.00000
      6     -44.3002      1.00000
      7       4.8667      1.00000
      8       5.2603      1.00000
      9       6.6838      1.00000
     10       6.7721      1.00000
     11       7.0134      1.00000
     12       7.2252      1.00000
     13       8.3138      1.00000
[...]
     19      18.3220      0.00000
     20      20.7956      0.00000
     21      22.3836      0.00000
     22      24.8373      0.00000
     23      26.2475      0.00000
     24      30.1349      0.00000

 k-point    30 :       0.4500    0.3500    0.2500
  band No.  band energies     occupation 
      1     -42.0263      1.00000
      2     -42.0261      1.00000
      3     -41.8747      1.00000
      4     -41.8234      1.00000
      5     -41.7172      1.00000
      6     -41.7128      1.00000
      7       6.7334      1.00000
      8       7.0460      1.00000
      9       7.9690      1.00000
     10       7.9799      1.00000
     11       8.3656      1.00000
     12       8.4923      1.00000
     13      11.1854      0.00000
     14      11.2359      0.00000
     15      11.5157      0.00000
     16      11.5343      0.00000
     17      13.8183      0.00000
     18      14.8905      0.00000
     19      19.1258      0.00000
     20      20.5765      0.00000
     21      21.9119      0.00000
     22      23.4378      0.00000
     23      26.7643      0.00000
     24      28.2351      0.00000

 k-point    31 :       0.4500    0.4500    0.2500
  band No.  band energies     occupation 
      1     -42.0341      1.00000
      2     -42.0335      1.00000
      3     -41.8554      1.00000
      4     -41.8347      1.00000
      5     -41.7236      1.00000
      6     -41.7199      1.00000
      7       6.8540      1.00000
      8       6.9346      1.00000
      9       7.8862      1.00000
     10       7.9011      1.00000
     11       8.6622      1.00000
     12       8.7313      1.00000
     13      11.3019      0.00000
     14      11.3266      0.00000
     15      11.5272      0.00000
     16      11.5399      0.00000
     17      14.4951      0.00000
     18      15.0179      0.00000
     19      18.3890      0.00000
     20      19.0487      0.00000
     21      23.0057      0.00000
     22      24.1223      0.00000
     23      25.2300      0.00000
     24      26.3277      0.00000

 k-point    32 :       0.3500    0.3500    0.3500
  band No.  band energies     occupation 
      1     -42.0104      1.00000
      2     -41.9598      1.00000
      3     -41.9598      1.00000
      4     -41.7711      1.00000
      5     -41.7711      1.00000
      6     -41.7210      1.00000
      7       6.9267      1.00000
      8       7.5016      1.00000
      9       7.9294      1.00000
     10       7.9294      1.00000
     11       8.0755      1.00000
     12       8.0755      1.00000
     13      11.3776      0.00000
     14      11.3776      0.00000
     15      11.4161      0.00000
     16      11.4161      0.00000
     17      13.8667      0.00000
     18      17.4981      0.00000
     19      17.4981      0.00000
     20      19.8841      0.00000
     21      22.8245      0.00000
     22      22.8245      0.00000
     23      24.1419      0.00000
     24      28.0386      0.00000

 k-point    33 :       0.4500    0.3500    0.3500
  band No.  band energies     occupation 
      1     -42.0050      1.00000
      2     -41.9890      1.00000
      3     -41.8969      1.00000
      4     -41.8318      1.00000
      5     -41.7548      1.00000
      6     -41.7362      1.00000
      7       7.2807      1.00000
      8       7.3833      1.00000
      9       7.8738      1.00000
     10       7.9221      1.00000
     11       8.0481      1.00000
     12       8.2184      1.00000
     13      11.3610      0.00000
     14      11.3863      0.00000
     15      11.5036      0.00000
     16      11.5149      0.00000
     17      14.8073      0.00000
     18      16.0286      0.00000
     19      19.1317      0.00000
     20      20.4277      0.00000
     21      20.9124      0.00000
     22      21.6680      0.00000
     23      24.5491      0.00000
     24      26.0855      0.00000

 k-point    34 :       0.4500    0.4500    0.3500
  band No.  band energies     occupation 
      1     -41.9876      1.00000
      2     -41.9765      1.00000
      3     -41.8833      1.00000
      4     -41.8469      1.00000
      5     -41.7774      1.00000
      6     -41.7630      1.00000
      7       7.4296      1.00000
      8       7.4434      1.00000
      9       7.8043      1.00000
     10       7.8470      1.00000
     11       8.1743      1.00000
     12       8.2625      1.00000
     13      11.4447      0.00000
     14      11.4556      0.00000
     15      11.5342      0.00000
     16      11.5384      0.00000
     17      15.8071      0.00000
     18      16.5896      0.00000
     19      18.5408      0.00000
     20      19.5006      0.00000
     21      21.0114      0.00000
     22      22.1195      0.00000
     23      22.9660      0.00000
     24      24.1578      0.00000

 k-point    35 :       0.4500    0.4500    0.4500
  band No.  band energies     occupation 
      1     -41.9428      1.00000
      2     -41.9104      1.00000
      3     -41.9104      1.00000
      4     -41.8418      1.00000
      5     -41.8418      1.00000
      6     -41.8092      1.00000
      7       7.6642      1.00000
      8       7.8108      1.00000
      9       7.8108      1.00000
     10       7.9094      1.00000
     11       7.9548      1.00000
     12       7.9548      1.00000
     13      11.5400      0.00000
     14      11.5400      0.00000
     15      11.5430      0.00000
     16      11.5430      0.00000
     17      17.1213      0.00000
     18      18.3157      0.00000
     19      18.3157      0.00000
     20      20.0004      0.00000
     21      20.1686      0.00000
     22      20.1686      0.00000
     23      21.5136      0.00000
     24      22.3075      0.00000


--------------------------------------------------------------------------------------------------------


 soft charge-density along one line, spin component           1
         0         1         2         3         4         5         6         7         8         9
 total charge-density along one line
 
 soft charge-density along one line, spin component           2
         0         1         2         3         4         5         6         7         8         9
 total charge-density along one line
 
 pseudopotential strength for first ion, spin component:           1
-44.857   0.000  -0.000   7.570  -0.000   0.000  -0.000  -0.000
  0.000 -44.857   0.000  -0.000   7.570  -0.000  -0.000   0.000
 -0.000   0.000 -44.857   0.000  -0.000   7.570   0.000  -0.000
  7.570  -0.000   0.000   5.637  -0.000   0.000   0.000   0.000
 -0.000   7.570  -0.000  -0.000   5.637  -0.000   0.000  -0.000
  0.000  -0.000   7.570   0.000  -0.000   5.637  -0.000   0.000
 -0.000  -0.000   0.000   0.000   0.000  -0.000  -1.980   0.000
 -0.000   0.000  -0.000   0.000  -0.000   0.000   0.000  -1.980
 -0.000  -0.000  -0.000   0.000   0.000   0.000   0.000   0.000
 -0.000   0.000  -0.000   0.000   0.000   0.000   0.000  -0.000
 -0.000   0.000  -0.000   0.000  -0.000  -0.000  -0.000  -0.000
 -0.000  -0.000   0.000  -0.000   0.000  -0.000  -2.495   0.000
 -0.000   0.000  -0.000   0.000  -0.000   0.000   0.000  -2.495
 -0.000  -0.000   0.000   0.000   0.000  -0.000   0.000   0.000
 -0.000   0.000  -0.000   0.000   0.000   0.000   0.000  -0.000
 -0.000   0.000   0.000   0.000  -0.000  -0.000  -0.000  -0.000
 -0.000   0.000  -0.000  -0.000   0.000  -0.000   0.000  -0.000
 -0.000   0.000  -0.000  -0.000   0.000   0.000   0.000  -0.000
 pseudopotential strength for first ion, spin component:           2
-42.886   0.000  -0.000   6.737  -0.000   0.000  -0.000  -0.000
  0.000 -42.886   0.000  -0.000   6.737  -0.000  -0.000   0.000
 -0.000   0.000 -42.886   0.000  -0.000   6.737   0.000  -0.000
  6.737  -0.000   0.000   5.865  -0.000   0.000   0.000   0.000
 -0.000   6.737  -0.000  -0.000   5.865  -0.000   0.000  -0.000
  0.000  -0.000   6.737   0.000  -0.000   5.865  -0.000   0.000
 -0.000  -0.000   0.000   0.000   0.000  -0.000  -0.454   0.000
 -0.000   0.000  -0.000   0.000  -0.000   0.000   0.000  -0.454
 -0.000  -0.000   0.000   0.000   0.000   0.000   0.000   0.000
 -0.000  -0.000  -0.000   0.000   0.000   0.000   0.000  -0.000
 -0.000   0.000  -0.000   0.000  -0.000   0.000  -0.000  -0.000
 -0.000  -0.000   0.000  -0.000   0.000  -0.000  -0.994   0.000
 -0.000   0.000  -0.000   0.000  -0.000   0.000   0.000  -0.994
 -0.000  -0.000   0.000   0.000   0.000  -0.000   0.000   0.000
 -0.000   0.000  -0.000   0.000   0.000   0.000   0.000  -0.000
 -0.000   0.000  -0.000   0.000  -0.000   0.000  -0.000  -0.000
 -0.000   0.000   0.000  -0.000   0.000   0.000   0.000  -0.000
 -0.000   0.000   0.000  -0.000   0.000   0.000   0.000  -0.000
 total augmentation occupancy for first ion, spin component:           1
  1.992   0.000   0.000  -0.026  -0.000   0.000   0.000   0.000   0.000  -0.000   0.000   0.000   0.000   0.000  -0.000   0.000
  0.000   1.992   0.000  -0.000  -0.026  -0.000   0.000   0.000   0.000   0.000   0.000   0.000   0.000   0.000   0.000   0.000
  0.000   0.000   1.992  -0.000  -0.000  -0.026   0.000  -0.000   0.000   0.000   0.000   0.000  -0.000   0.000   0.000  -0.000
 -0.026  -0.000   0.000   0.201   0.000   0.000  -0.000   0.000   0.000  -0.000   0.000   0.000   0.000   0.000  -0.000   0.000
 -0.000  -0.026  -0.000   0.000   0.201  -0.000   0.000  -0.000   0.000   0.000   0.000   0.000   0.000   0.000   0.000   0.000
 -0.000  -0.000  -0.026   0.000   0.000   0.201   0.000  -0.000  -0.000  -0.000  -0.000   0.000  -0.000  -0.000   0.000   0.000
  0.000  -0.000   0.000   0.000   0.000  -0.000   2.168   0.000   0.000   0.000  -0.000  -1.221  -0.000  -0.000  -0.000  -0.000
  0.000   0.000  -0.000  -0.000   0.000   0.000   0.000   2.168  -0.000  -0.000   0.000   0.000  -1.221   0.000  -0.000   0.000
  0.000   0.000  -0.000  -0.000   0.000  -0.000   0.000  -0.000   3.406  -0.000   0.000  -0.000   0.000  -2.182  -0.000   0.000
  0.000   0.000   0.000   0.000  -0.000   0.000   0.000  -0.000  -0.000   2.168   0.000  -0.000   0.000   0.000  -1.221  -0.000
 -0.000   0.000  -0.000   0.000   0.000   0.000  -0.000  -0.000   0.000   0.000   3.406   0.000   0.000   0.000  -0.000  -2.182
  0.000  -0.000   0.000   0.000   0.000   0.000  -1.221   0.000  -0.000   0.000  -0.000   1.648  -0.000   0.000  -0.000   0.000
  0.000   0.000   0.000   0.000   0.000   0.000   0.000  -1.221   0.000  -0.000  -0.000  -0.000   1.648  -0.000   0.000   0.000
  0.000   0.000  -0.000   0.000   0.000  -0.000  -0.000  -0.000  -2.182   0.000  -0.000   0.000   0.000   2.223   0.000   0.000
  0.000   0.000   0.000   0.000   0.000   0.000  -0.000   0.000  -0.000  -1.221   0.000  -0.000   0.000  -0.000   1.648  -0.000
  0.000   0.000   0.000   0.000   0.000   0.000   0.000   0.000   0.000   0.000  -2.182  -0.000   0.000   0.000   0.000   2.223
  0.000   0.000   0.000   0.000   0.000   0.000   0.000  -0.000  -0.000   0.000  -0.000  -0.000   0.000   0.000  -0.000   0.000
 -0.000  -0.000  -0.000  -0.000  -0.000  -0.000  -0.000   0.000   0.000   0.000   0.000   0.000  -0.000  -0.000   0.000   0.000
 total augmentation occupancy for first ion, spin component:           2
 -0.002   0.000   0.000  -0.009  -0.000  -0.000   0.000   0.000   0.000   0.000   0.000   0.000   0.000   0.000   0.000   0.000
  0.000  -0.002   0.000  -0.000  -0.009   0.000  -0.000   0.000   0.000   0.000  -0.000  -0.000   0.000   0.000   0.000   0.000
  0.000   0.000  -0.002   0.000  -0.000  -0.009   0.000   0.000   0.000   0.000  -0.000   0.000   0.000   0.000   0.000   0.000
 -0.009  -0.000  -0.000  -0.020   0.000   0.000   0.000  -0.000   0.000   0.000   0.000   0.000   0.000   0.000  -0.000   0.000
 -0.000  -0.009   0.000   0.000  -0.020   0.000  -0.000  -0.000   0.000   0.000   0.000   0.000   0.000   0.000   0.000   0.000
 -0.000   0.000  -0.009   0.000  -0.000  -0.020  -0.000   0.000   0.000   0.000   0.000   0.000   0.000   0.000   0.000   0.000
  0.000   0.000   0.000   0.000   0.000  -0.000   1.758  -0.000  -0.000   0.000   0.000  -0.661   0.000  -0.000  -0.000   0.000
  0.000   0.000   0.000   0.000  -0.000  -0.000   0.000   1.758   0.000   0.000   0.000   0.000  -0.661   0.000   0.000   0.000
  0.000   0.000   0.000   0.000   0.000   0.000  -0.000   0.000   2.821   0.000  -0.000  -0.000  -0.000  -1.163  -0.000  -0.000
  0.000   0.000   0.000  -0.000   0.000   0.000   0.000   0.000  -0.000   1.758   0.000   0.000   0.000   0.000  -0.661  -0.000
  0.000   0.000  -0.000   0.000   0.000  -0.000   0.000   0.000   0.000   0.000   2.821   0.000   0.000   0.000  -0.000  -1.163
  0.000  -0.000   0.000   0.000   0.000   0.000  -0.661   0.000  -0.000  -0.000   0.000  -0.006   0.000   0.000  -0.000  -0.000
  0.000   0.000  -0.000   0.000   0.000   0.000   0.000  -0.661  -0.000   0.000   0.000   0.000  -0.006   0.000  -0.000   0.000
 -0.000   0.000   0.000  -0.000   0.000  -0.000   0.000  -0.000  -1.163  -0.000   0.000   0.000  -0.000   0.239  -0.000  -0.000
 -0.000   0.000   0.000  -0.000   0.000   0.000  -0.000  -0.000  -0.000  -0.661  -0.000   0.000  -0.000   0.000  -0.006  -0.000
  0.000   0.000   0.000  -0.000   0.000   0.000   0.000  -0.000   0.000   0.000  -1.163  -0.000   0.000  -0.000  -0.000   0.239
  0.000   0.000   0.000   0.000   0.000   0.000  -0.000   0.000  -0.000  -0.000   0.000   0.000  -0.000  -0.000  -0.000  -0.000
 -0.000  -0.000  -0.000  -0.000  -0.000  -0.000   0.000   0.000  -0.000  -0.000  -0.000   0.000  -0.000   0.000   0.000  -0.000


------------------------ aborting loop because EDIFF is reached ----------------------------------------


 


 total charge     
 
# of ion       s       p       d       tot
------------------------------------------
    1        0.385   6.378   6.074  12.837
    2        0.385   6.378   6.074  12.837
--------------------------------------------------
tot          0.770  12.756  12.148  25.674
 


 magnetization (x)
 
# of ion       s       p       d       tot
------------------------------------------
    1       -0.008  -0.042   2.292   2.242
    2       -0.008  -0.042   2.292   2.242
--------------------------------------------------
tot         -0.015  -0.083   4.584   4.485
 
    CHARGE:  cpu time    0.0094: real time    0.0095
    FORLOC:  cpu time    0.0001: real time    0.0001
    FORNL :  cpu time    0.0586: real time    0.0587
    STRESS:  cpu time    0.1737: real time    0.1741
    FORCOR:  cpu time    0.0041: real time    0.0041
    FORHAR:  cpu time    0.0006: real time    0.0006
    MIXING:  cpu time    0.0006: real time    0.0006
    OFIELD:  cpu time    0.0000: real time    0.0000

  FORCE on cell =-STRESS in cart. coord.  units (eV):
  Direction    XX          YY          ZZ          XY          YZ          ZX
  --------------------------------------------------------------------------------------
  Alpha Z   218.87049   218.87049   218.87049
  Ewald   -1205.52018 -1205.52018 -1205.52018    -0.00000    -0.00000    -0.00000
  Hartree   363.32484   363.32484   363.32484    -0.00000    -0.00000    -0.00000
  E(xc)    -179.77603  -179.77603  -179.77603     0.00000     0.00000    -0.00000
  Local     289.69781   289.69781   289.69781     0.00000    -0.00000    -0.00000
  n-local   -60.43468   -54.44191   -50.83390     2.76496    -1.54640     0.59256
  augment   285.34454   285.34454   285.34454    -0.00000    -0.00000    -0.00000
  Kinetic   284.08993   282.64742   281.89788     2.96178    -0.75560    -0.08632
  Fock        0.00000     0.00000     0.00000     0.00000     0.00000     0.00000
  -------------------------------------------------------------------------------------
  Total      -0.41695    -0.41695    -0.41695     0.00000     0.00000    -0.00000
  in kB     -29.16187   -29.16187   -29.16187     0.00000     0.00000    -0.00000
  external pressure =      -29.16 kB  Pullay stress =        0.00 kB


 VOLUME and BASIS-vectors are now :
 -----------------------------------------------------------------------------
  energy-cutoff  :      440.00
  volume of cell :       22.91
      direct lattice vectors                 reciprocal lattice vectors
     2.840052000  0.000000000  0.000000000     0.352106229  0.000000000  0.000000000
     0.000000000  2.840052000  0.000000000     0.000000000  0.352106229  0.000000000
     0.000000000  0.000000000  2.840052000     0.000000000  0.000000000  0.352106229

  length of vectors
     2.840052000  2.840052000  2.840052000     0.352106229  0.352106229  0.352106229


 FORCES acting on ions
    electron-ion (+dipol)            ewald-force                    non-local-force                 convergence-correction
 -----------------------------------------------------------------------------------------------
   0.703E-14 0.322E-13 0.437E-13   -.529E-15 -.103E-14 -.897E-14   0.323E-26 0.364E-26 0.323E-26   -.160E-13 -.382E-14 -.133E-12
   -.218E-12 0.341E-11 0.423E-12   0.472E-14 0.447E-14 0.926E-14   -.162E-26 -.162E-26 -.404E-27   -.217E-13 0.356E-13 0.586E-13
 -----------------------------------------------------------------------------------------------
   -.211E-12 0.344E-11 0.467E-12   0.419E-14 0.343E-14 0.284E-15   0.162E-26 0.202E-26 0.283E-26   -.377E-13 0.317E-13 -.742E-13
 
 
 POSITION                                       TOTAL-FORCE (eV/Angst)
 -----------------------------------------------------------------------------------
      0.00000      0.00000      0.00000         0.000000      0.000000      0.000000
      1.42003      1.42003      1.42003        -0.000000     -0.000000     -0.000000
 -----------------------------------------------------------------------------------
    total drift:                               -0.000000      0.000000      0.000000


--------------------------------------------------------------------------------------------------------



  FREE ENERGIE OF THE ION-ELECTRON SYSTEM (eV)
  ---------------------------------------------------
  free  energy   TOTEN  =       -16.50931402 eV

  energy  without entropy=      -16.50931402  energy(sigma->0) =      -16.50931402
 


--------------------------------------------------------------------------------------------------------


    POTLOK:  cpu time    0.0090: real time    0.0090


--------------------------------------------------------------------------------------------------------


     LOOP+:  cpu time    7.7848: real time    7.8253
    4ORBIT:  cpu time    0.0000: real time    0.0000
 


 total charge     
 
# of ion       s       p       d       tot
------------------------------------------
    1        0.385   6.378   6.074  12.837
    2        0.385   6.378   6.074  12.837
--------------------------------------------------
tot          0.770  12.756  12.148  25.674
 


 magnetization (x)
 
# of ion       s       p       d       tot
------------------------------------------
    1       -0.008  -0.042   2.292   2.242
    2       -0.008  -0.042   2.292   2.242
--------------------------------------------------
tot         -0.015  -0.083   4.584   4.485
 
 BZINTS: Fermi energy:  9.623643; 28.000000 electrons
         Band energy:-399.234953;  BLOECHL correction: -0.034695

 total amount of memory used by VASP MPI-rank0    31842. kBytes
=======================================================================

   base      :      30000. kBytes
   nonlr-proj:        565. kBytes
   fftplans  :        172. kBytes
   grid      :        402. kBytes
   one-center:         31. kBytes
   wavefun   :        672. kBytes
 
  
  
 General timing and accounting informations for this job:
 ========================================================
  
                  Total CPU time used (sec):        8.479
                            User time (sec):        8.324
                          System time (sec):        0.155
                         Elapsed time (sec):        8.543
  
                   Maximum memory used (kb):       52276.
                   Average memory used (kb):           0.
  
                          Minor page faults:        12658
                          Major page faults:            0
                 Voluntary context switches:          179
