       N       E                     dE             d eps       ncg     rms          rms(c)
DAV:   1     0.282887815539E+03    0.28289E+03   -0.17655E+04 36098   0.246E+03
DAV:   2     0.583607332860E+01   -0.27705E+03   -0.27224E+03 35192   0.567E+02
DAV:   3    -0.759506609370E+01   -0.13431E+02   -0.13220E+02 36740   0.143E+02
DAV:   4    -0.782096308599E+01   -0.22590E+00   -0.22560E+00 35920   0.182E+01
DAV:   5    -0.782662499129E+01   -0.56619E-02   -0.56616E-02 36760   0.278E+00    0.224E+01
DAV:   6    -0.719762966139E+01    0.62900E+00   -0.15427E+01 35616   0.514E+01    0.971E+00
DAV:   7    -0.782001876284E+01   -0.62239E+00   -0.13516E+00 35436   0.134E+01    0.557E+00
DAV:   8    -0.795151677089E+01   -0.13150E+00   -0.21055E-01 37190   0.466E+00    0.257E+00
DAV:   9    -0.805974004556E+01   -0.10822E+00   -0.38958E-01 40096   0.429E+00    0.913E-01
DAV:  10    -0.810249135133E+01   -0.42751E-01   -0.77207E-02 36428   0.221E+00    0.624E-01
DAV:  11    -0.812389978547E+01   -0.21408E-01   -0.37239E-02 36906   0.157E+00    0.397E-01
DAV:  12    -0.813219960705E+01   -0.82998E-02   -0.28040E-02 37848   0.141E+00    0.157E-01
DAV:  13    -0.813296395682E+01   -0.76435E-03   -0.36167E-03 35930   0.536E-01    0.893E-02
DAV:  14    -0.813306170372E+01   -0.97747E-04   -0.47026E-04 36686   0.201E-01    0.413E-02
DAV:  15    -0.813309455500E+01   -0.32851E-04   -0.97864E-05 38362   0.972E-02    0.147E-02
DAV:  16    -0.813308350862E+01    0.11046E-04   -0.32095E-05 40110   0.520E-02    0.910E-03
DAV:  17    -0.813306550358E+01    0.18005E-04   -0.28075E-05 38474   0.367E-02    0.585E-03
DAV:  18    -0.813307642632E+01   -0.10923E-04   -0.20167E-05 32144   0.296E-02    0.211E-03
DAV:  19    -0.813307897073E+01   -0.25444E-05   -0.17203E-06 20768   0.106E-02    0.102E-03
DAV:  20    -0.813307932889E+01   -0.35816E-06   -0.20231E-07 17508   0.413E-03
   1 F= -.81330793E+01 E0= -.81330793E+01  d E =0.000000E+00  mag=     0.0000
