       N       E                     dE             d eps       ncg     rms          rms(c)
DAV:   1     0.267289777700E+03    0.26729E+03   -0.24187E+04252576   0.264E+03
DAV:   2    -0.821867990307E+01   -0.27551E+03   -0.26425E+03255492   0.486E+02
DAV:   3    -0.162011556146E+02   -0.79825E+01   -0.79651E+01272688   0.889E+01
DAV:   4    -0.162717187613E+02   -0.70563E-01   -0.70560E-01291576   0.799E+00
DAV:   5    -0.162730257636E+02   -0.13070E-02   -0.13070E-02272664   0.102E+00    0.249E+01
DAV:   6    -0.164618851529E+02   -0.18886E+00   -0.74526E+00254112   0.398E+01    0.686E+00
DAV:   7    -0.165140933756E+02   -0.52208E-01   -0.61929E-01255336   0.991E+00    0.433E+00
DAV:   8    -0.165241333465E+02   -0.10040E-01   -0.14834E-02284532   0.148E+00    0.137E+00
DAV:   9    -0.165157803787E+02    0.83530E-02   -0.50928E-03274404   0.886E-01    0.348E-01
DAV:  10    -0.165154279112E+02    0.35247E-03   -0.21960E-03259728   0.610E-01    0.444E-02
DAV:  11    -0.165154738585E+02   -0.45947E-04   -0.56531E-05268548   0.710E-02    0.250E-02
DAV:  12    -0.165154715660E+02    0.22925E-05   -0.49488E-06290304   0.241E-02    0.103E-02
DAV:  13    -0.165154729918E+02   -0.14258E-05   -0.21916E-06263424   0.153E-02    0.146E-03
DAV:  14    -0.165154731660E+02   -0.17421E-06   -0.10655E-07250008   0.294E-03    0.618E-04
DAV:  15    -0.165154731274E+02    0.38602E-07   -0.62530E-09134028   0.945E-04
   1 F= -.16515473E+02 E0= -.16515473E+02  d E =0.000000E+00  mag=     4.4318
