       N       E                     dE             d eps       ncg     rms          rms(c)
DAV:   1     0.128611241249E+04    0.12861E+04   -0.31019E+04 64360   0.355E+03
DAV:   2     0.344352702582E+03   -0.94176E+03   -0.85080E+03 73568   0.711E+02
DAV:   3    -0.786121464474E+01   -0.35221E+03   -0.34173E+03 85392   0.367E+02
DAV:   4    -0.753726211555E+02   -0.67511E+02   -0.65781E+02103840   0.150E+02
DAV:   5    -0.816860885161E+02   -0.63135E+01   -0.58948E+01106312   0.497E+01    0.375E+01
DAV:   6    -0.767465151785E+02    0.49396E+01   -0.30190E+02 82296   0.162E+02    0.502E+01
DAV:   7    -0.779119036214E+02   -0.11654E+01   -0.14974E+02 75936   0.148E+02    0.243E+01
DAV:   8    -0.834325882900E+02   -0.55207E+01   -0.37720E+01 98056   0.388E+01    0.101E+01
DAV:   9    -0.831351925117E+02    0.29740E+00   -0.81468E+00 90912   0.230E+01    0.723E+00
DAV:  10    -0.833808168727E+02   -0.24562E+00   -0.12844E+00106704   0.885E+00    0.623E+00
DAV:  11    -0.833266638574E+02    0.54153E-01   -0.32180E-01 85416   0.603E+00    0.410E+00
DAV:  12    -0.833200682409E+02    0.65956E-02   -0.30447E-01 86040   0.533E+00    0.168E+00
DAV:  13    -0.833373660882E+02   -0.17298E-01   -0.77103E-02 97888   0.248E+00    0.814E-01
DAV:  14    -0.833450378882E+02   -0.76718E-02   -0.30702E-02 97664   0.133E+00    0.515E-01
DAV:  15    -0.833450671458E+02   -0.29258E-04   -0.55270E-03106424   0.625E-01    0.171E-01
DAV:  16    -0.833453316846E+02   -0.26454E-03   -0.10243E-03103992   0.266E-01    0.825E-02
DAV:  17    -0.833454504850E+02   -0.11880E-03   -0.21205E-04105608   0.119E-01    0.307E-02
DAV:  18    -0.833455052644E+02   -0.54779E-04   -0.51584E-05101408   0.650E-02    0.273E-02
DAV:  19    -0.833455040095E+02    0.12549E-05   -0.11453E-05 85216   0.277E-02    0.149E-02
DAV:  20    -0.833454976932E+02    0.63163E-05   -0.16423E-06 49264   0.151E-02    0.450E-03
DAV:  21    -0.833454920550E+02    0.56382E-05   -0.86408E-07 41840   0.135E-02    0.202E-03
DAV:  22    -0.833454915472E+02    0.50784E-06   -0.52933E-07 39200   0.110E-02
   1 F= -.83345492E+02 E0= -.83345492E+02  d E =0.000000E+00  mag=    -0.0000
