       N       E                     dE             d eps       ncg     rms          rms(c)
DAV:   1     0.143539467769E+03    0.14354E+03   -0.87322E+03  1864   0.205E+03
DAV:   2    -0.734440195812E+00   -0.14427E+03   -0.12961E+03  1740   0.258E+02
DAV:   3    -0.152221718528E+02   -0.14488E+02   -0.14086E+02  1856   0.890E+01
DAV:   4    -0.160047231698E+02   -0.78255E+00   -0.76832E+00  2684   0.186E+01
DAV:   5    -0.160318493562E+02   -0.27126E-01   -0.27020E-01  2260   0.294E+00    0.132E+01
DAV:   6    -0.202059235013E+02   -0.41741E+01   -0.46457E+01  2308   0.674E+01    0.177E+01
DAV:   7    -0.190844488699E+02    0.11215E+01   -0.28745E+00  1936   0.385E+01    0.657E+00
DAV:   8    -0.187608018434E+02    0.32365E+00   -0.14336E+00  2724   0.141E+01    0.254E+00
DAV:   9    -0.188326150453E+02   -0.71813E-01   -0.13612E+00  2168   0.977E+00    0.333E+00
DAV:  10    -0.187484428600E+02    0.84172E-01   -0.80703E-01  2092   0.734E+00    0.105E+00
DAV:  11    -0.187605680210E+02   -0.12125E-01   -0.18097E-02  2560   0.956E-01    0.538E-01
DAV:  12    -0.187591944210E+02    0.13736E-02   -0.50722E-03  2520   0.673E-01    0.512E-01
DAV:  13    -0.187574948918E+02    0.16995E-02   -0.44949E-03  2392   0.558E-01    0.269E-01
DAV:  14    -0.187572310170E+02    0.26387E-03   -0.14036E-03  2656   0.305E-01    0.156E-01
DAV:  15    -0.187573039417E+02   -0.72925E-04   -0.20251E-03  2084   0.374E-01    0.107E-02
DAV:  16    -0.187573042425E+02   -0.30080E-06   -0.90919E-05  2500   0.485E-02    0.987E-03
DAV:  17    -0.187573039885E+02    0.25403E-06   -0.34069E-06  2456   0.841E-03    0.894E-03
DAV:  18    -0.187573101236E+02   -0.61351E-05   -0.86110E-07  2384   0.702E-03    0.975E-03
DAV:  19    -0.187572974503E+02    0.12673E-04   -0.18831E-06  2040   0.117E-02    0.407E-03
DAV:  20    -0.187572919910E+02    0.54593E-05   -0.53069E-07  1756   0.594E-03    0.187E-03
DAV:  21    -0.187572910476E+02    0.94341E-06   -0.56099E-08   992   0.210E-03    0.145E-03
DAV:  22    -0.187572924868E+02   -0.14393E-05   -0.47489E-08   932   0.241E-03    0.757E-04
DAV:  23    -0.187572934123E+02   -0.92549E-06   -0.24987E-08   920   0.141E-03    0.310E-04
DAV:  24    -0.187572939149E+02   -0.50257E-06   -0.91696E-09   952   0.786E-04    0.888E-05
DAV:  25    -0.187572940173E+02   -0.10243E-06   -0.28875E-09   920   0.541E-04    0.918E-05
DAV:  26    -0.187572939941E+02    0.23182E-07   -0.14066E-09   908   0.335E-04
   1 F= -.18757294E+02 E0= -.18757294E+02  d E =0.000000E+00  mag=     6.9956
