=========================================
SLURM_JOB_ID = 30574110
SLURM_JOB_NODELIST = lnode19
SLURM_GPUS = 
SLURM_CPUS_ON_NODE = 8
SLURM_JOB_PARTITION = lenovo
SLURM_TASK_PID = 924724
CUDA_VISIBLE_DEVICES = 
==========================================
 running on    8 total cores
 distrk:  each k-point on    8 cores,    1 groups
 distr:  one band on    4 cores,    2 groups
 using from now: INCAR     
 vasp.5.4.4.18Apr17-6-g9f103f2a35 (build Apr 28 2018 00:24:27) complex          
  
 POSCAR found type information on POSCAR  Co
 POSCAR found :  1 types and       6 ions
 scaLAPACK will be used
 LDA part: xc-table for Pade appr. of Perdew


 VERY BAD NEWS! internal error in subroutine IBZKPT:
 Reciprocal lattice and k-lattice belong to different class of lattices. Often results are still useful...      48


 VERY BAD NEWS! internal error in subroutine IBZKPT:
 Reciprocal lattice and k-lattice belong to different class of lattices. Often results are still useful...      48


 VERY BAD NEWS! internal error in subroutine IBZKPT:
 Reciprocal lattice and k-lattice belong to different class of lattices. Often results are still useful...      48



 VERY BAD NEWS! internal error in subroutine IBZKPT:
 Reciprocal lattice and k-lattice belong to different class of lattices. Often results are still useful...      48

 VERY BAD NEWS! internal error in subroutine IBZKPT:
 Reciprocal lattice and k-lattice belong to different class of lattices. Often results are still useful...      48


 VERY BAD NEWS! internal error in subroutine IBZKPT:
 Reciprocal lattice and k-lattice belong to different class of lattices. Often results are still useful...      48


 VERY BAD NEWS! internal error in subroutine IBZKPT:
 Reciprocal lattice and k-lattice belong to different class of lattices. Often results are still useful...      48


 VERY BAD NEWS! internal error in subroutine IBZKPT:
 Reciprocal lattice and k-lattice belong to different class of lattices. Often results are still useful...      48
 POSCAR, INCAR and KPOINTS ok, starting setup
 FFT: planning ...
 WAVECAR not read
 entering main loop
       N       E                     dE             d eps       ncg     rms          rms(c)
DAV:   1     0.391197747162E+03    0.39120E+03   -0.24207E+04 20736   0.231E+03
DAV:   2    -0.136150745603E+02   -0.40481E+03   -0.39589E+03 20872   0.431E+02
DAV:   3    -0.458035580386E+02   -0.32188E+02   -0.30633E+02 25056   0.154E+02
DAV:   4    -0.484676136444E+02   -0.26641E+01   -0.25572E+01 28456   0.378E+01
DAV:   5    -0.485610369833E+02   -0.93423E-01   -0.92050E-01 29768   0.659E+00    0.255E+01
DAV:   6    -0.437086080075E+02    0.48524E+01   -0.92434E+01 26712   0.111E+02    0.196E+01
DAV:   7    -0.559827337720E+02   -0.12274E+02   -0.13738E+02 36776   0.191E+02    0.430E+01
DAV:   8    -0.416701663279E+02    0.14313E+02   -0.30621E+01 33208   0.912E+01    0.101E+01
DAV:   9    -0.419181660498E+02   -0.24800E+00   -0.11144E+01 34880   0.419E+01    0.772E+00
DAV:  10    -0.417054974003E+02    0.21267E+00   -0.19259E+00 31808   0.222E+01    0.207E+00
DAV:  11    -0.417023142617E+02    0.31831E-02   -0.23224E-01 32096   0.498E+00    0.132E+00
DAV:  12    -0.416963102686E+02    0.60040E-02   -0.36432E-02 29720   0.339E+00    0.534E-01
DAV:  13    -0.416988749203E+02   -0.25647E-02   -0.90648E-03 32600   0.960E-01    0.351E-01
DAV:  14    -0.416999546459E+02   -0.10797E-02   -0.50041E-03 29296   0.116E+00    0.186E-01
DAV:  15    -0.417002311996E+02   -0.27655E-03   -0.10209E-03 26000   0.318E-01    0.116E-01
DAV:  16    -0.417001561766E+02    0.75023E-04   -0.16684E-04 30112   0.118E-01    0.672E-02
DAV:  17    -0.417001531742E+02    0.30025E-05   -0.25496E-05 34032   0.706E-02    0.397E-02
DAV:  18    -0.417000927408E+02    0.60433E-04   -0.32148E-05 33904   0.774E-02    0.930E-03
DAV:  19    -0.417000727309E+02    0.20010E-04   -0.63178E-06 21760   0.266E-02    0.142E-02
DAV:  20    -0.417000920622E+02   -0.19331E-04   -0.43403E-06 17936   0.451E-02    0.210E-03
DAV:  21    -0.417000932120E+02   -0.11498E-05   -0.41674E-07 10968   0.698E-03    0.117E-03
DAV:  22    -0.417000947950E+02   -0.15830E-05   -0.15568E-07 10760   0.370E-03    0.126E-03
DAV:  23    -0.417000935460E+02    0.12490E-05   -0.66840E-08 10728   0.379E-03    0.371E-04
DAV:  24    -0.417000932140E+02    0.33203E-06   -0.25293E-08 10648   0.101E-03
   1 F= -.41700093E+02 E0= -.41700093E+02  d E =0.000000E+00  mag=    -0.0000
