 vasp.5.4.4.18Apr17-6-g9f103f2a35 (build Apr 28 2018 00:24:27) complex          
  
 executed on             LinuxIFC date 2021.03.19  23:54:46
 running on    8 total cores
 distrk:  each k-point on    8 cores,    1 groups
 distr:  one band on NCORES_PER_BAND=   4 cores,    2 groups


--------------------------------------------------------------------------------------------------------


 INCAR:
 POTCAR:    PAW_PBE Co 02Aug2007                  
 POTCAR:    PAW_PBE Co 02Aug2007                  
   SHA256 =  0e690c60710354995174544f52f9f2c30879afabeffe3b3fbd4001cb294e56d4 Co
   COPYR  = (c) Copyright 02Aug2007 Georg Kresse                                
   COPYR  = This file is part of the software VASP. Any use, copying, and all ot
   COPYR  = If you do not have a valid VASP license, you may not use, copy or di
   VRHFIN =Co: d8 s1                                                            
   LEXCH  = PE                                                                  
   EATOM  =   813.3670 eV,   59.7808 Ry                                         
                                                                                
   TITEL  = PAW_PBE Co 02Aug2007                                                
   LULTRA =        F    use ultrasoft PP ?                                      
   IUNSCR =        1    unscreen: 0-lin 1-nonlin 2-no                           
   RPACOR =    2.000    partial core radius                                     
   POMASS =   58.933; ZVAL   =    9.000    mass and valenz                      
   RCORE  =    2.300    outmost cutoff radius                                   
   RWIGS  =    2.460; RWIGS  =    1.302    wigner-seitz radius (au A)           
   ENMAX  =  267.968; ENMIN  =  200.976 eV                                      
   RCLOC  =    1.203    cutoff for local pot                                    
   LCOR   =        T    correct aug charges                                     
   LPAW   =        T    paw PP                                                  
   EAUG   =  477.818                                                            
   DEXC   =    0.000                                                            
   RMAX   =    2.360    core radius for proj-oper                               
   RAUG   =    1.300    factor for augmentation sphere                          
   RDEP   =    2.393    radius for radial grids                                 
   RDEPT  =    1.864    core radius for aug-charge                              
                                                                                
   Atomic configuration                                                         
    9 entries                                                                   
     n  l   j            E        occ.                                          
     1  0  0.50     -7587.6674   2.0000                                         
     2  0  0.50      -893.6084   2.0000                                         
     2  1  1.50      -764.5805   6.0000                                         
     3  0  0.50       -97.5973   2.0000                                         
     3  1  1.50       -60.9648   6.0000                                         
     3  2  2.50        -4.2382   8.0000                                         
     4  0  0.50        -4.3746   1.0000                                         
     4  1  1.50        -4.0817   0.0000                                         
     4  3  2.50        -1.3606   0.0000                                         
   Description                                                                  
     l       E           TYP  RCUT    TYP  RCUT                                 
     2     -4.2382362     23  2.300                                             
     2     -5.5988188     23  2.300                                             
     0     -4.3745797     23  2.300                                             
     0      5.7660125     23  2.300                                             
     1     -2.7211652     23  2.300                                             
     1     16.9860234     23  2.300                                             
  local pseudopotential read in
  partial core-charges read in
  partial kinetic energy density read in
  atomic valenz-charges read in
  non local Contribution for L=           2  read in
    real space projection operators read in
  non local Contribution for L=           2  read in
    real space projection operators read in
  non local Contribution for L=           0  read in
    real space projection operators read in
  non local Contribution for L=           0  read in
    real space projection operators read in
  non local Contribution for L=           1  read in
    real space projection operators read in
  non local Contribution for L=           1  read in
    real space projection operators read in
    PAW grid and wavefunctions read in
 
   number of l-projection  operators is LMAX  =           6
   number of lm-projection operators is LMMAX =          18
 
  PAW_PBE Co 02Aug2007                  :
 energy of atom  1       EATOM= -813.3670
 kinetic energy error for atom=    0.0028 (will be added to EATOM!!)
 
 
 POSCAR: Co2 str #: 13                           
  positions in direct lattice
  No initial velocities read in
 exchange correlation table for  LEXCH =        8
   RHO(1)=    0.500       N(1)  =     2000
   RHO(2)=  100.500       N(2)  =     4000
 


--------------------------------------------------------------------------------------------------------


 ion  position               nearest neighbor table
   1  0.667  0.250  0.667-   5 2.47   5 2.47   3 2.47   3 2.47   5 2.47   3 2.47
   2  0.667  0.583  0.667-   3 2.47   3 2.47   6 2.47   6 2.47   3 2.47   6 2.47
   3  0.333  0.417  0.333-   2 2.47   2 2.47   1 2.47   1 2.47   2 2.47   1 2.47
   4  0.667  0.917  0.667-   6 2.47   6 2.47   5 2.47   5 2.47   6 2.47   5 2.47
   5  0.333  0.083  0.333-   1 2.47   1 2.47   4 2.47   4 2.47   1 2.47   4 2.47
   6  0.333  0.750  0.333-   4 2.47   4 2.47   2 2.47   2 2.47   4 2.47   2 2.47
 
  LATTYP: Found a hexagonal cell.
 ALAT       =     2.4918167332
 C/A-ratio  =     4.8345422999
  
  Lattice vectors:
  
 A1 = (   1.2459087000,   2.1579764000,   0.0000000000)
 A2 = (   1.2459083000,  -2.1579764000,   0.0000000000)
 A3 = (   0.0000000000,   0.0000000000, -12.0467934000)


Analysis of symmetry for initial positions (statically):
=====================================================================
 Subroutine PRICEL returns following result:
 
  LATTYP: Found a hexagonal cell.
 ALAT       =     2.4918167332
 C/A-ratio  =     1.6115140983
  
  Lattice vectors:
  
 A1 = (   1.2459087000,   2.1579764000,   0.0000000000)
 A2 = (   1.2459083000,  -2.1579764000,   0.0000000000)
 A3 = (   0.0000000000,   0.0000000000,  -4.0155977960)
 
   3 primitive cells build up your supercell.
 

 Routine SETGRP: Setting up the symmetry group for a 
 hexagonal supercell.


 Subroutine GETGRP returns: Found 24 space group operations
 (whereof 12 operations were pure point group operations)
 out of a pool of 24 trial point group operations.


The static configuration has the point symmetry D_3d.
 The point group associated with its full space group is D_6h.


Analysis of symmetry for dynamics (positions and initial velocities):
=====================================================================
 Subroutine PRICEL returns following result:
 
  LATTYP: Found a hexagonal cell.
 ALAT       =     2.4918167332
 C/A-ratio  =     1.6115140983
  
  Lattice vectors:
  
 A1 = (   1.2459087000,   2.1579764000,   0.0000000000)
 A2 = (   1.2459083000,  -2.1579764000,   0.0000000000)
 A3 = (   0.0000000000,   0.0000000000,  -4.0155977960)
 
   3 primitive cells build up your supercell.
 

 Routine SETGRP: Setting up the symmetry group for a 
 hexagonal supercell.


 Subroutine GETGRP returns: Found 24 space group operations
 (whereof 12 operations were pure point group operations)
 out of a pool of 24 trial point group operations.


The dynamic configuration has the point symmetry D_3d.
 The point group associated with its full space group is D_6h.


Analysis of structural, dynamic, and magnetic symmetry:
=====================================================================
 Subroutine PRICEL returns:
 Original cell was already a primitive cell.
 

 Routine SETGRP: Setting up the symmetry group for a 
 hexagonal supercell.


 Subroutine GETGRP returns: Found 24 space group operations
 (whereof  6 operations were pure point group operations)
 out of a pool of 24 trial point group operations.


The magnetic configuration has the point symmetry C_3v.
 The point group associated with its full space group is D_6h.


 Subroutine INISYM returns: Found 24 space group operations
 (whereof  6 operations are pure point group operations),
 and found     1 'primitive' translations

 
 
 KPOINTS: pymatgen v2021.2.8.1 with grid density =

Automatic generation of k-mesh.
Space group operators:
 irot       det(A)        alpha          n_x          n_y          n_z        tau_x        tau_y        tau_z
    1     1.000000     0.000000     1.000000     0.000000     0.000000     0.000000     0.000000     0.000000
    2     1.000000   120.000000     0.000000     0.000000     1.000000     0.000000     0.000000     0.000000
    3     1.000000   120.000000     0.000000     0.000000    -1.000000     0.000000     0.000000     0.000000
    4    -1.000000   180.000000    -0.500000    -0.866025     0.000000     0.000000     0.000000     0.000000
    5    -1.000000   180.000000     0.500000    -0.866025     0.000000     0.000000     0.000000     0.000000
    6    -1.000000   180.000000     1.000000    -0.000000     0.000000     0.000000     0.000000     0.000000
    7    -1.000000     0.000000     1.000000     0.000000     0.000000    -0.000000    -0.666667     0.000000
    8     1.000000    60.000000     0.000000     0.000000     1.000000    -0.000001    -0.500000     0.000000
    9    -1.000000    60.000000     0.000000     0.000000     1.000000    -0.000001    -0.166667     0.000000
   10    -1.000000   120.000000     0.000000     0.000000     1.000000    -0.000001    -0.666667     0.000001
   11     1.000000   179.999999     0.000000     0.000000     1.000000    -0.000000    -0.500000     0.000000
   12    -1.000000   179.999999     0.000000     0.000000     1.000000     0.000000    -0.166667     0.000000
   13    -1.000000   120.000000     0.000000     0.000000    -1.000000    -0.000001    -0.666667     0.000000
   14     1.000000    60.000000     0.000000     0.000000    -1.000000    -0.000001    -0.500000     0.000001
   15    -1.000000    60.000000     0.000000     0.000000    -1.000000    -0.000001    -0.166667     0.000001
   16     1.000000   180.000000    -0.500000    -0.866025     0.000000    -0.000000    -0.666667     0.000000
   17     1.000000   180.000000     0.000000     1.000000     0.000000    -0.000001    -0.166667     0.000001
   18    -1.000000   180.000000     0.000000     1.000000     0.000000    -0.000001    -0.500000     0.000001
   19     1.000000   180.000000     0.500000    -0.866025     0.000000    -0.000001    -0.666667     0.000000
   20     1.000000   180.000000     0.866025    -0.500000     0.000000     0.000000    -0.166667     0.000000
   21    -1.000000   180.000000     0.866025    -0.500000     0.000000    -0.000000    -0.500000     0.000000
   22     1.000000   180.000000     1.000000    -0.000000     0.000000    -0.000001    -0.666667     0.000001
   23     1.000000   180.000000     0.866025     0.500000     0.000000    -0.000001    -0.166667     0.000000
   24    -1.000000   180.000000     0.866025     0.500000     0.000000    -0.000001    -0.500000     0.000000
 
 Subroutine IBZKPT returns following result:
 ===========================================
 
 Found    162 irreducible k-points:
 
 Following reciprocal coordinates:
            Coordinates               Weight
  0.000000  0.000000  0.000000      1.000000
  0.100000  0.000000 -0.000000      2.000000
  0.200000  0.000000  0.000000      2.000000
  0.300000  0.000000 -0.000000      2.000000
  0.400000  0.000000  0.000000      2.000000
  0.500000  0.000000  0.000000      3.000000
  0.000000  0.100000  0.000000      2.000000
  0.100000  0.100000 -0.000000      4.000000
  0.200000  0.100000  0.000000      4.000000
  0.300000  0.100000 -0.000000      4.000000
  0.400000  0.100000  0.000000      4.000000
  0.500000  0.100000  0.000000      6.000000
  0.000000  0.200000  0.000000      2.000000
  0.100000  0.200000 -0.000000      4.000000
  0.200000  0.200000  0.000000      4.000000
  0.300000  0.200000 -0.000000      4.000000
  0.400000  0.200000  0.000000      4.000000
  0.500000  0.200000  0.000000      6.000000
  0.000000  0.300000  0.000000      2.000000
  0.100000  0.300000 -0.000000      4.000000
  0.200000  0.300000  0.000000      4.000000
  0.300000  0.300000 -0.000000      4.000000
  0.400000  0.300000  0.000000      4.000000
  0.500000  0.300000  0.000000      6.000000
  0.000000  0.400000  0.000000      2.000000
  0.100000  0.400000 -0.000000      4.000000
  0.200000  0.400000  0.000000      4.000000
  0.300000  0.400000 -0.000000      4.000000
  0.400000  0.400000  0.000000      4.000000
  0.500000  0.400000  0.000000      6.000000
  0.000000  0.500000  0.000000      1.000000
  0.100000  0.500000 -0.000000      2.000000
  0.200000  0.500000  0.000000      2.000000
  0.300000  0.500000 -0.000000      2.000000
  0.400000  0.500000  0.000000      2.000000
  0.500000  0.500000  0.000000      3.000000
  0.000000  0.000000  0.166667      2.000000
  0.100000  0.000000  0.166667      2.000000
  0.200000  0.000000  0.166667      2.000000
  0.300000  0.000000  0.166667      2.000000
  0.400000  0.000000  0.166667      2.000000
  0.500000  0.000000  0.166667      4.000000
 -0.400000  0.000000  0.166667      2.000000
 -0.300000  0.000000  0.166667      2.000000
 -0.200000  0.000000  0.166667      2.000000
 -0.100000  0.000000  0.166667      2.000000
  0.000000  0.100000  0.166667      4.000000
  0.100000  0.100000  0.166667      4.000000
  0.200000  0.100000  0.166667      4.000000
  0.300000  0.100000  0.166667      4.000000
  0.400000  0.100000  0.166667      4.000000
  0.500000  0.100000  0.166667      8.000000
 -0.400000  0.100000  0.166667      4.000000
 -0.300000  0.100000  0.166667      4.000000
 -0.200000  0.100000  0.166667      4.000000
 -0.100000  0.100000  0.166667      4.000000
  0.000000  0.200000  0.166667      4.000000
  0.100000  0.200000  0.166667      4.000000
  0.200000  0.200000  0.166667      4.000000
  0.300000  0.200000  0.166667      4.000000
  0.400000  0.200000  0.166667      4.000000
  0.500000  0.200000  0.166667      8.000000
 -0.400000  0.200000  0.166667      4.000000
 -0.300000  0.200000  0.166667      4.000000
 -0.200000  0.200000  0.166667      4.000000
 -0.100000  0.200000  0.166667      4.000000
  0.000000  0.300000  0.166667      4.000000
  0.100000  0.300000  0.166667      4.000000
  0.200000  0.300000  0.166667      4.000000
  0.300000  0.300000  0.166667      4.000000
  0.400000  0.300000  0.166667      4.000000
  0.500000  0.300000  0.166667      8.000000
 -0.400000  0.300000  0.166667      4.000000
 -0.300000  0.300000  0.166667      4.000000
 -0.200000  0.300000  0.166667      4.000000
 -0.100000  0.300000  0.166667      4.000000
  0.000000  0.400000  0.166667      4.000000
  0.100000  0.400000  0.166667      4.000000
  0.200000  0.400000  0.166667      4.000000
  0.300000  0.400000  0.166667      4.000000
  0.400000  0.400000  0.166667      4.000000
  0.500000  0.400000  0.166667      8.000000
 -0.400000  0.400000  0.166667      4.000000
 -0.300000  0.400000  0.166667      4.000000
 -0.200000  0.400000  0.166667      4.000000
 -0.100000  0.400000  0.166667      4.000000
  0.000000  0.500000  0.166667      2.000000
  0.100000  0.500000  0.166667      2.000000
  0.200000  0.500000  0.166667      2.000000
  0.300000  0.500000  0.166667      2.000000
  0.400000  0.500000  0.166667      2.000000
  0.500000  0.500000  0.166667      4.000000
 -0.400000  0.500000  0.166667      2.000000
 -0.300000  0.500000  0.166667      2.000000
 -0.200000  0.500000  0.166667      2.000000
 -0.100000  0.500000  0.166667      2.000000
 -0.000000  0.000000  0.333333      2.000000
  0.100000  0.000000  0.333333      2.000000
  0.200000  0.000000  0.333333      2.000000
  0.300000  0.000000  0.333333      2.000000
  0.400000  0.000000  0.333333      2.000000
 -0.400000  0.000000  0.333333      2.000000
 -0.300000  0.000000  0.333333      2.000000
 -0.200000  0.000000  0.333333      2.000000
 -0.100000  0.000000  0.333333      2.000000
 -0.000000  0.100000  0.333333      4.000000
  0.100000  0.100000  0.333333      4.000000
  0.200000  0.100000  0.333333      4.000000
  0.300000  0.100000  0.333333      4.000000
  0.400000  0.100000  0.333333      4.000000
 -0.400000  0.100000  0.333333      4.000000
 -0.300000  0.100000  0.333333      4.000000
 -0.200000  0.100000  0.333333      4.000000
 -0.100000  0.100000  0.333333      4.000000
 -0.000000  0.200000  0.333333      4.000000
  0.100000  0.200000  0.333333      4.000000
  0.200000  0.200000  0.333333      4.000000
  0.300000  0.200000  0.333333      4.000000
  0.400000  0.200000  0.333333      4.000000
 -0.400000  0.200000  0.333333      4.000000
 -0.300000  0.200000  0.333333      4.000000
 -0.200000  0.200000  0.333333      4.000000
 -0.100000  0.200000  0.333333      4.000000
 -0.000000  0.300000  0.333333      4.000000
  0.100000  0.300000  0.333333      4.000000
  0.200000  0.300000  0.333333      4.000000
  0.300000  0.300000  0.333333      4.000000
  0.400000  0.300000  0.333333      4.000000
 -0.400000  0.300000  0.333333      4.000000
 -0.300000  0.300000  0.333333      4.000000
 -0.200000  0.300000  0.333333      4.000000
 -0.100000  0.300000  0.333333      4.000000
 -0.000000  0.400000  0.333333      4.000000
  0.100000  0.400000  0.333333      4.000000
  0.200000  0.400000  0.333333      4.000000
  0.300000  0.400000  0.333333      4.000000
  0.400000  0.400000  0.333333      4.000000
 -0.400000  0.400000  0.333333      4.000000
 -0.300000  0.400000  0.333333      4.000000
 -0.200000  0.400000  0.333333      4.000000
 -0.100000  0.400000  0.333333      4.000000
 -0.000000  0.500000  0.333333      2.000000
  0.100000  0.500000  0.333333      2.000000
  0.200000  0.500000  0.333333      2.000000
  0.300000  0.500000  0.333333      2.000000
  0.400000  0.500000  0.333333      2.000000
 -0.400000  0.500000  0.333333      2.000000
 -0.300000  0.500000  0.333333      2.000000
 -0.200000  0.500000  0.333333      2.000000
 -0.100000  0.500000  0.333333      2.000000
  0.100000  0.000000  0.500000      4.000000
  0.200000  0.000000  0.500000      4.000000
  0.100000  0.100000  0.500000      8.000000
  0.200000  0.100000  0.500000      8.000000
  0.100000  0.200000  0.500000      8.000000
  0.200000  0.200000  0.500000      8.000000
  0.100000  0.300000  0.500000      8.000000
  0.200000  0.300000  0.500000      8.000000
  0.100000  0.400000  0.500000      8.000000
  0.200000  0.400000  0.500000      8.000000
  0.100000  0.500000  0.500000      4.000000
  0.200000  0.500000  0.500000      4.000000
 
 Following cartesian coordinates:
            Coordinates               Weight
  0.000000  0.000000  0.000000      1.000000
 -0.040131  0.023170  0.000000      2.000000
 -0.080263  0.046340  0.000000      2.000000
 -0.120394  0.069510  0.000000      2.000000
 -0.160525  0.092679  0.000000      2.000000
 -0.200657  0.115849  0.000000      3.000000
  0.000000  0.000000  0.008301      2.000000
 -0.040131  0.023170  0.008301      4.000000
 -0.080263  0.046340  0.008301      4.000000
 -0.120394  0.069510  0.008301      4.000000
 -0.160525  0.092679  0.008301      4.000000
 -0.200657  0.115849  0.008301      6.000000
  0.000000  0.000000  0.016602      2.000000
 -0.040131  0.023170  0.016602      4.000000
 -0.080263  0.046340  0.016602      4.000000
 -0.120394  0.069510  0.016602      4.000000
 -0.160525  0.092679  0.016602      4.000000
 -0.200657  0.115849  0.016602      6.000000
  0.000000  0.000000  0.024903      2.000000
 -0.040131  0.023170  0.024903      4.000000
 -0.080263  0.046340  0.024903      4.000000
 -0.120394  0.069510  0.024903      4.000000
 -0.160525  0.092679  0.024903      4.000000
 -0.200657  0.115849  0.024903      6.000000
  0.000000  0.000000  0.033204      2.000000
 -0.040131  0.023170  0.033204      4.000000
 -0.080263  0.046340  0.033204      4.000000
 -0.120394  0.069510  0.033204      4.000000
 -0.160525  0.092679  0.033204      4.000000
 -0.200657  0.115849  0.033204      6.000000
  0.000000  0.000000  0.041505      1.000000
 -0.040131  0.023170  0.041505      2.000000
 -0.080263  0.046340  0.041505      2.000000
 -0.120394  0.069510  0.041505      2.000000
 -0.160525  0.092679  0.041505      2.000000
 -0.200657  0.115849  0.041505      3.000000
  0.066886  0.038616  0.000000      2.000000
  0.026754  0.061786  0.000000      2.000000
 -0.013377  0.084956  0.000000      2.000000
 -0.053508  0.108126  0.000000      2.000000
 -0.093640  0.131296  0.000000      2.000000
 -0.133771  0.154466  0.000000      4.000000
  0.227411 -0.054063  0.000000      2.000000
  0.187280 -0.030893  0.000000      2.000000
  0.147148 -0.007723  0.000000      2.000000
  0.107017  0.015447  0.000000      2.000000
  0.066886  0.038616  0.008301      4.000000
  0.026754  0.061786  0.008301      4.000000
 -0.013377  0.084956  0.008301      4.000000
 -0.053508  0.108126  0.008301      4.000000
 -0.093640  0.131296  0.008301      4.000000
 -0.133771  0.154466  0.008301      8.000000
  0.227411 -0.054063  0.008301      4.000000
  0.187280 -0.030893  0.008301      4.000000
  0.147148 -0.007723  0.008301      4.000000
  0.107017  0.015447  0.008301      4.000000
  0.066886  0.038616  0.016602      4.000000
  0.026754  0.061786  0.016602      4.000000
 -0.013377  0.084956  0.016602      4.000000
 -0.053508  0.108126  0.016602      4.000000
 -0.093640  0.131296  0.016602      4.000000
 -0.133771  0.154466  0.016602      8.000000
  0.227411 -0.054063  0.016602      4.000000
  0.187280 -0.030893  0.016602      4.000000
  0.147148 -0.007723  0.016602      4.000000
  0.107017  0.015447  0.016602      4.000000
  0.066886  0.038616  0.024903      4.000000
  0.026754  0.061786  0.024903      4.000000
 -0.013377  0.084956  0.024903      4.000000
 -0.053508  0.108126  0.024903      4.000000
 -0.093640  0.131296  0.024903      4.000000
 -0.133771  0.154466  0.024903      8.000000
  0.227411 -0.054063  0.024903      4.000000
  0.187280 -0.030893  0.024903      4.000000
  0.147148 -0.007723  0.024903      4.000000
  0.107017  0.015447  0.024903      4.000000
  0.066886  0.038616  0.033204      4.000000
  0.026754  0.061786  0.033204      4.000000
 -0.013377  0.084956  0.033204      4.000000
 -0.053508  0.108126  0.033204      4.000000
 -0.093640  0.131296  0.033204      4.000000
 -0.133771  0.154466  0.033204      8.000000
  0.227411 -0.054063  0.033204      4.000000
  0.187280 -0.030893  0.033204      4.000000
  0.147148 -0.007723  0.033204      4.000000
  0.107017  0.015447  0.033204      4.000000
  0.066886  0.038616  0.041505      2.000000
  0.026754  0.061786  0.041505      2.000000
 -0.013377  0.084956  0.041505      2.000000
 -0.053508  0.108126  0.041505      2.000000
 -0.093640  0.131296  0.041505      2.000000
 -0.133771  0.154466  0.041505      4.000000
  0.227411 -0.054063  0.041505      2.000000
  0.187280 -0.030893  0.041505      2.000000
  0.147148 -0.007723  0.041505      2.000000
  0.107017  0.015447  0.041505      2.000000
  0.133771  0.077233  0.000000      2.000000
  0.093640  0.100403  0.000000      2.000000
  0.053508  0.123573  0.000000      2.000000
  0.013377  0.146742  0.000000      2.000000
 -0.026754  0.169912  0.000000      2.000000
  0.294297 -0.015447  0.000000      2.000000
  0.254165  0.007723  0.000000      2.000000
  0.214034  0.030893  0.000000      2.000000
  0.173903  0.054063  0.000000      2.000000
  0.133771  0.077233  0.008301      4.000000
  0.093640  0.100403  0.008301      4.000000
  0.053508  0.123573  0.008301      4.000000
  0.013377  0.146742  0.008301      4.000000
 -0.026754  0.169912  0.008301      4.000000
  0.294297 -0.015447  0.008301      4.000000
  0.254165  0.007723  0.008301      4.000000
  0.214034  0.030893  0.008301      4.000000
  0.173903  0.054063  0.008301      4.000000
  0.133771  0.077233  0.016602      4.000000
  0.093640  0.100403  0.016602      4.000000
  0.053508  0.123573  0.016602      4.000000
  0.013377  0.146742  0.016602      4.000000
 -0.026754  0.169912  0.016602      4.000000
  0.294297 -0.015447  0.016602      4.000000
  0.254165  0.007723  0.016602      4.000000
  0.214034  0.030893  0.016602      4.000000
  0.173903  0.054063  0.016602      4.000000
  0.133771  0.077233  0.024903      4.000000
  0.093640  0.100403  0.024903      4.000000
  0.053508  0.123573  0.024903      4.000000
  0.013377  0.146742  0.024903      4.000000
 -0.026754  0.169912  0.024903      4.000000
  0.294297 -0.015447  0.024903      4.000000
  0.254165  0.007723  0.024903      4.000000
  0.214034  0.030893  0.024903      4.000000
  0.173903  0.054063  0.024903      4.000000
  0.133771  0.077233  0.033204      4.000000
  0.093640  0.100403  0.033204      4.000000
  0.053508  0.123573  0.033204      4.000000
  0.013377  0.146742  0.033204      4.000000
 -0.026754  0.169912  0.033204      4.000000
  0.294297 -0.015447  0.033204      4.000000
  0.254165  0.007723  0.033204      4.000000
  0.214034  0.030893  0.033204      4.000000
  0.173903  0.054063  0.033204      4.000000
  0.133771  0.077233  0.041505      2.000000
  0.093640  0.100403  0.041505      2.000000
  0.053508  0.123573  0.041505      2.000000
  0.013377  0.146742  0.041505      2.000000
 -0.026754  0.169912  0.041505      2.000000
  0.294297 -0.015447  0.041505      2.000000
  0.254165  0.007723  0.041505      2.000000
  0.214034  0.030893  0.041505      2.000000
  0.173903  0.054063  0.041505      2.000000
  0.160525  0.139019  0.000000      4.000000
  0.120394  0.162189  0.000000      4.000000
  0.160525  0.139019  0.008301      8.000000
  0.120394  0.162189  0.008301      8.000000
  0.160525  0.139019  0.016602      8.000000
  0.120394  0.162189  0.016602      8.000000
  0.160525  0.139019  0.024903      8.000000
  0.120394  0.162189  0.024903      8.000000
  0.160525  0.139019  0.033204      8.000000
  0.120394  0.162189  0.033204      8.000000
  0.160525  0.139019  0.041505      4.000000
  0.120394  0.162189  0.041505      4.000000
 
 TETIRR: Found   1800 inequivalent tetrahedra from     3600


--------------------------------------------------------------------------------------------------------




 Dimension of arrays:
   k-points           NKPTS =    162   k-points in BZ     NKDIM =    162   number of bands    NBANDS=     32
   number of dos      NEDOS =    301   number of ions     NIONS =      6
   non local maximal  LDIM  =      6   non local SUM 2l+1 LMDIM =     18
   total plane-waves  NPLWV =  13720
   max r-space proj   IRMAX =      1   max aug-charges    IRDMAX=   8552
   dimension x,y,z NGX =    14 NGY =   70 NGZ =   14
   dimension x,y,z NGXF=    28 NGYF=  140 NGZF=   28
   support grid    NGXF=    28 NGYF=  140 NGZF=   28
   ions per type =               6
   NGX,Y,Z   is equivalent  to a cutoff of   9.34,  9.66,  9.34 a.u.
   NGXF,Y,Z  is equivalent  to a cutoff of  18.68, 19.32, 18.68 a.u.

 SYSTEM =  "Co_hcp"                                
 POSCAR =  Co2 str #: 13                           

 Startparameter for this run:
   NWRITE =      2    write-flag & timer
   PREC   = normal    normal or accurate (medium, high low for compatibility)
   ISTART =      0    job   : 0-new  1-cont  2-samecut
   ICHARG =      2    charge: 1-file 2-atom 10-const
   ISPIN  =      2    spin polarized calculation?
   LNONCOLLINEAR =      F non collinear calculations
   LSORBIT =      F    spin-orbit coupling
   INIWAV =      1    electr: 0-lowe 1-rand  2-diag
   LASPH  =      F    aspherical Exc in radial PAW
   METAGGA=      F    non-selfconsistent MetaGGA calc.

 Electronic Relaxation 1
   ENCUT  =  520.0 eV  38.22 Ry    6.18 a.u.   4.63 22.40  4.63*2*pi/ulx,y,z
   ENINI  =  520.0     initial cutoff
   ENAUG  =  477.8 eV  augmentation charge cutoff
   NELM   =     60;   NELMIN=  2; NELMDL= -5     # of ELM steps 
   EDIFF  = 0.1E-05   stopping-criterion for ELM
   LREAL  =      F    real-space projection
   NLSPLINE    = F    spline interpolate recip. space projectors
   LCOMPAT=      F    compatible to vasp.4.4
   GGA_COMPAT  = T    GGA compatible to vasp.4.4-vasp.4.6
   LMAXPAW     = -100 max onsite density
   LMAXMIX     =    2 max onsite mixed and CHGCAR
   VOSKOWN=      0    Vosko Wilk Nusair interpolation
   ROPT   =    0.00000
 Ionic relaxation
   EDIFFG = 0.1E-04   stopping-criterion for IOM
   NSW    =      0    number of steps for IOM
   NBLOCK =      1;   KBLOCK =      1    inner block; outer block 
   IBRION =     -1    ionic relax: 0-MD 1-quasi-New 2-CG
   NFREE  =      1    steps in history (QN), initial steepest desc. (CG)
   ISIF   =      2    stress and relaxation
   IWAVPR =     10    prediction:  0-non 1-charg 2-wave 3-comb
   ISYM   =      2    0-nonsym 1-usesym 2-fastsym
   LCORR  =      T    Harris-Foulkes like correction to forces

   POTIM  = 0.5000    time-step for ionic-motion
   TEIN   =    0.0    initial temperature
   TEBEG  =    0.0;   TEEND  =   0.0 temperature during run
   SMASS  =  -3.00    Nose mass-parameter (am)
   estimated Nose-frequenzy (Omega)   =  0.10E-29 period in steps =****** mass=  -0.142E-27a.u.
   SCALEE = 1.0000    scale energy and forces
   NPACO  =    256;   APACO  = 16.0  distance and # of slots for P.C.
   PSTRESS=    0.0 pullay stress

  Mass of Ions in am
   POMASS =  58.93
  Ionic Valenz
   ZVAL   =   9.00
  Atomic Wigner-Seitz radii
   RWIGS  =  -1.00
  virtual crystal weights 
   VCA    =   1.00
   NELECT =      54.0000    total number of electrons
   NUPDOWN=      -1.0000    fix difference up-down

 DOS related values:
   EMIN   =  10.00;   EMAX   =-10.00  energy-range for DOS
   EFERMI =   0.00
   ISMEAR =    -5;   SIGMA  =   0.05  broadening in eV -4-tet -1-fermi 0-gaus

 Electronic relaxation 2 (details)
   IALGO  =     38    algorithm
   LDIAG  =      T    sub-space diagonalisation (order eigenvalues)
   LSUBROT=      F    optimize rotation matrix (better conditioning)
   TURBO    =      0    0=normal 1=particle mesh
   IRESTART =      0    0=no restart 2=restart with 2 vectors
   NREBOOT  =      0    no. of reboots
   NMIN     =      0    reboot dimension
   EREF     =   0.00    reference energy to select bands
   IMIX   =      4    mixing-type and parameters
     AMIX     =   0.40;   BMIX     =  1.00
     AMIX_MAG =   1.60;   BMIX_MAG =  1.00
     AMIN     =   0.10
     WC   =   100.;   INIMIX=   1;  MIXPRE=   1;  MAXMIX= -45

 Intra band minimization:
   WEIMIN = 0.0000     energy-eigenvalue tresh-hold
   EBREAK =  0.78E-08  absolut break condition
   DEPER  =   0.30     relativ break condition  

   TIME   =   0.40     timestep for ELM

  volume/ion in A,a.u.               =      10.80        72.86
  Fermi-wavevector in a.u.,A,eV,Ry     =   1.540735  2.911567 32.298391  2.373865
  Thomas-Fermi vector in A             =   2.646780
 
 Write flags
   LWAVE        =      F    write WAVECAR
   LDOWNSAMPLE  =      F    k-point downsampling of WAVECAR
   LCHARG       =      F    write CHGCAR
   LVTOT        =      F    write LOCPOT, total local potential
   LVHAR        =      F    write LOCPOT, Hartree potential only
   LELF         =      F    write electronic localiz. function (ELF)
   LORBIT       =     11    0 simple, 1 ext, 2 COOP (PROOUT), +10 PAW based schemes


 Dipole corrections
   LMONO  =      F    monopole corrections only (constant potential shift)
   LDIPOL =      F    correct potential (dipole corrections)
   IDIPOL =      0    1-x, 2-y, 3-z, 4-all directions 
   EPSILON=  1.0000000 bulk dielectric constant

 Exchange correlation treatment:
   GGA     =    --    GGA type
   LEXCH   =     8    internal setting for exchange type
   VOSKOWN=      0    Vosko Wilk Nusair interpolation
   LHFCALC =     F    Hartree Fock is set to
   LHFONE  =     F    Hartree Fock one center treatment
   AEXX    =    0.0000 exact exchange contribution

 Linear response parameters
   LEPSILON=     F    determine dielectric tensor
   LRPA    =     F    only Hartree local field effects (RPA)
   LNABLA  =     F    use nabla operator in PAW spheres
   LVEL    =     F    velocity operator in full k-point grid
   LINTERFAST=   F  fast interpolation
   KINTER  =     0    interpolate to denser k-point grid
   CSHIFT  =0.1000    complex shift for real part using Kramers Kronig
   OMEGAMAX=  -1.0    maximum frequency
   DEG_THRESHOLD= 0.2000000E-02 threshold for treating states as degnerate
   RTIME   =   -0.100 relaxation time in fs
  (WPLASMAI=    0.000 imaginary part of plasma frequency in eV, 0.658/RTIME)
   DFIELD  = 0.0000000 0.0000000 0.0000000 field for delta impulse in time
 
 Orbital magnetization related:
   ORBITALMAG=     F  switch on orbital magnetization
   LCHIMAG   =     F  perturbation theory with respect to B field
   DQ        =  0.001000  dq finite difference perturbation B field
   LLRAUG    =     F  two centre corrections for induced B field



--------------------------------------------------------------------------------------------------------


 Static calculation
 charge density and potential will be updated during run
 spin polarized calculation
 Variant of blocked Davidson
 Davidson routine will perform the subspace rotation
 perform sub-space diagonalisation
    after iterative eigenvector-optimisation
 modified Broyden-mixing scheme, WC =      100.0
 initial mixing is a Kerker type mixing with AMIX =  0.4000 and BMIX =      1.0000
 Hartree-type preconditioning will be used
 using additional bands            5
 reciprocal scheme for non local part
 use partial core corrections
 calculate Harris-corrections to forces 
   (improved forces if not selfconsistent)
 use gradient corrections 
 use of overlap-Matrix (Vanderbilt PP)
 Fermi weights with tetrahedron method with Bloechl corrections


--------------------------------------------------------------------------------------------------------


  energy-cutoff  :      520.00
  volume of cell :       64.78
      direct lattice vectors                 reciprocal lattice vectors
    -1.245908300  2.157976400  0.000000000    -0.401313580  0.231698586  0.000000000
     0.000000000  0.000000000 12.046793400     0.000000000  0.000000000  0.083009641
     1.245908700  2.157976400  0.000000000     0.401313580  0.231698512  0.000000000

  length of vectors
     2.491816533 12.046793400  2.491816733     0.463397048  0.083009641  0.463397011


 
 k-points in units of 2pi/SCALE and weight: pymatgen v2021.2.8.1 with grid density =
   0.00000000  0.00000000  0.00000000       0.002
  -0.04013136  0.02316986  0.00000000       0.003
  -0.08026272  0.04633972  0.00000000       0.003
  -0.12039407  0.06950958  0.00000000       0.003
  -0.16052543  0.09267943  0.00000000       0.003
  -0.20065679  0.11584929  0.00000000       0.005
   0.00000000  0.00000000  0.00830096       0.003
  -0.04013136  0.02316986  0.00830096       0.007
  -0.08026272  0.04633972  0.00830096       0.007
  -0.12039407  0.06950958  0.00830096       0.007
  -0.16052543  0.09267943  0.00830096       0.007
  -0.20065679  0.11584929  0.00830096       0.010
   0.00000000  0.00000000  0.01660193       0.003
  -0.04013136  0.02316986  0.01660193       0.007
  -0.08026272  0.04633972  0.01660193       0.007
  -0.12039407  0.06950958  0.01660193       0.007
  -0.16052543  0.09267943  0.01660193       0.007
  -0.20065679  0.11584929  0.01660193       0.010
   0.00000000  0.00000000  0.02490289       0.003
  -0.04013136  0.02316986  0.02490289       0.007
  -0.08026272  0.04633972  0.02490289       0.007
  -0.12039407  0.06950958  0.02490289       0.007
  -0.16052543  0.09267943  0.02490289       0.007
  -0.20065679  0.11584929  0.02490289       0.010
   0.00000000  0.00000000  0.03320386       0.003
  -0.04013136  0.02316986  0.03320386       0.007
  -0.08026272  0.04633972  0.03320386       0.007
  -0.12039407  0.06950958  0.03320386       0.007
  -0.16052543  0.09267943  0.03320386       0.007
  -0.20065679  0.11584929  0.03320386       0.010
   0.00000000  0.00000000  0.04150482       0.002
  -0.04013136  0.02316986  0.04150482       0.003
  -0.08026272  0.04633972  0.04150482       0.003
  -0.12039407  0.06950958  0.04150482       0.003
  -0.16052543  0.09267943  0.04150482       0.003
  -0.20065679  0.11584929  0.04150482       0.005
   0.06688560  0.03861642  0.00000000       0.003
   0.02675424  0.06178628  0.00000000       0.003
  -0.01337712  0.08495614  0.00000000       0.003
  -0.05350848  0.10812599  0.00000000       0.003
  -0.09363984  0.13129585  0.00000000       0.003
  -0.13377119  0.15446571  0.00000000       0.007
   0.22741103 -0.05406302  0.00000000       0.003
   0.18727967 -0.03089316  0.00000000       0.003
   0.14714831 -0.00772330  0.00000000       0.003
   0.10701695  0.01544656  0.00000000       0.003
   0.06688560  0.03861642  0.00830096       0.007
   0.02675424  0.06178628  0.00830096       0.007
  -0.01337712  0.08495614  0.00830096       0.007
  -0.05350848  0.10812599  0.00830096       0.007
  -0.09363984  0.13129585  0.00830096       0.007
  -0.13377119  0.15446571  0.00830096       0.013
   0.22741103 -0.05406302  0.00830096       0.007
   0.18727967 -0.03089316  0.00830096       0.007
   0.14714831 -0.00772330  0.00830096       0.007
   0.10701695  0.01544656  0.00830096       0.007
   0.06688560  0.03861642  0.01660193       0.007
   0.02675424  0.06178628  0.01660193       0.007
  -0.01337712  0.08495614  0.01660193       0.007
  -0.05350848  0.10812599  0.01660193       0.007
  -0.09363984  0.13129585  0.01660193       0.007
  -0.13377119  0.15446571  0.01660193       0.013
   0.22741103 -0.05406302  0.01660193       0.007
   0.18727967 -0.03089316  0.01660193       0.007
   0.14714831 -0.00772330  0.01660193       0.007
   0.10701695  0.01544656  0.01660193       0.007
   0.06688560  0.03861642  0.02490289       0.007
   0.02675424  0.06178628  0.02490289       0.007
  -0.01337712  0.08495614  0.02490289       0.007
  -0.05350848  0.10812599  0.02490289       0.007
  -0.09363984  0.13129585  0.02490289       0.007
  -0.13377119  0.15446571  0.02490289       0.013
   0.22741103 -0.05406302  0.02490289       0.007
   0.18727967 -0.03089316  0.02490289       0.007
   0.14714831 -0.00772330  0.02490289       0.007
   0.10701695  0.01544656  0.02490289       0.007
   0.06688560  0.03861642  0.03320386       0.007
   0.02675424  0.06178628  0.03320386       0.007
  -0.01337712  0.08495614  0.03320386       0.007
  -0.05350848  0.10812599  0.03320386       0.007
  -0.09363984  0.13129585  0.03320386       0.007
  -0.13377119  0.15446571  0.03320386       0.013
   0.22741103 -0.05406302  0.03320386       0.007
   0.18727967 -0.03089316  0.03320386       0.007
   0.14714831 -0.00772330  0.03320386       0.007
   0.10701695  0.01544656  0.03320386       0.007
   0.06688560  0.03861642  0.04150482       0.003
   0.02675424  0.06178628  0.04150482       0.003
  -0.01337712  0.08495614  0.04150482       0.003
  -0.05350848  0.10812599  0.04150482       0.003
  -0.09363984  0.13129585  0.04150482       0.003
  -0.13377119  0.15446571  0.04150482       0.007
   0.22741103 -0.05406302  0.04150482       0.003
   0.18727967 -0.03089316  0.04150482       0.003
   0.14714831 -0.00772330  0.04150482       0.003
   0.10701695  0.01544656  0.04150482       0.003
   0.13377119  0.07723284  0.00000000       0.003
   0.09363984  0.10040270  0.00000000       0.003
   0.05350848  0.12357255  0.00000000       0.003
   0.01337712  0.14674241  0.00000000       0.003
  -0.02675424  0.16991227  0.00000000       0.003
   0.29429663 -0.01544660  0.00000000       0.003
   0.25416527  0.00772326  0.00000000       0.003
   0.21403391  0.03089312  0.00000000       0.003
   0.17390255  0.05406298  0.00000000       0.003
   0.13377119  0.07723284  0.00830096       0.007
   0.09363984  0.10040270  0.00830096       0.007
   0.05350848  0.12357255  0.00830096       0.007
   0.01337712  0.14674241  0.00830096       0.007
  -0.02675424  0.16991227  0.00830096       0.007
   0.29429663 -0.01544660  0.00830096       0.007
   0.25416527  0.00772326  0.00830096       0.007
   0.21403391  0.03089312  0.00830096       0.007
   0.17390255  0.05406298  0.00830096       0.007
   0.13377119  0.07723284  0.01660193       0.007
   0.09363984  0.10040270  0.01660193       0.007
   0.05350848  0.12357255  0.01660193       0.007
   0.01337712  0.14674241  0.01660193       0.007
  -0.02675424  0.16991227  0.01660193       0.007
   0.29429663 -0.01544660  0.01660193       0.007
   0.25416527  0.00772326  0.01660193       0.007
   0.21403391  0.03089312  0.01660193       0.007
   0.17390255  0.05406298  0.01660193       0.007
   0.13377119  0.07723284  0.02490289       0.007
   0.09363984  0.10040270  0.02490289       0.007
   0.05350848  0.12357255  0.02490289       0.007
   0.01337712  0.14674241  0.02490289       0.007
  -0.02675424  0.16991227  0.02490289       0.007
   0.29429663 -0.01544660  0.02490289       0.007
   0.25416527  0.00772326  0.02490289       0.007
   0.21403391  0.03089312  0.02490289       0.007
   0.17390255  0.05406298  0.02490289       0.007
   0.13377119  0.07723284  0.03320386       0.007
   0.09363984  0.10040270  0.03320386       0.007
   0.05350848  0.12357255  0.03320386       0.007
   0.01337712  0.14674241  0.03320386       0.007
  -0.02675424  0.16991227  0.03320386       0.007
   0.29429663 -0.01544660  0.03320386       0.007
   0.25416527  0.00772326  0.03320386       0.007
   0.21403391  0.03089312  0.03320386       0.007
   0.17390255  0.05406298  0.03320386       0.007
   0.13377119  0.07723284  0.04150482       0.003
   0.09363984  0.10040270  0.04150482       0.003
   0.05350848  0.12357255  0.04150482       0.003
   0.01337712  0.14674241  0.04150482       0.003
  -0.02675424  0.16991227  0.04150482       0.003
   0.29429663 -0.01544660  0.04150482       0.003
   0.25416527  0.00772326  0.04150482       0.003
   0.21403391  0.03089312  0.04150482       0.003
   0.17390255  0.05406298  0.04150482       0.003
   0.16052543  0.13901911  0.00000000       0.007
   0.12039407  0.16218897  0.00000000       0.007
   0.16052543  0.13901911  0.00830096       0.013
   0.12039407  0.16218897  0.00830096       0.013
   0.16052543  0.13901911  0.01660193       0.013
   0.12039407  0.16218897  0.01660193       0.013
   0.16052543  0.13901911  0.02490289       0.013
   0.12039407  0.16218897  0.02490289       0.013
   0.16052543  0.13901911  0.03320386       0.013
   0.12039407  0.16218897  0.03320386       0.013
   0.16052543  0.13901911  0.04150482       0.007
   0.12039407  0.16218897  0.04150482       0.007
 
 k-points in reciprocal lattice and weights: pymatgen v2021.2.8.1 with grid density =
   0.00000000  0.00000000  0.00000000       0.002
   0.10000000  0.00000000 -0.00000000       0.003
   0.20000000  0.00000000  0.00000000       0.003
   0.30000000  0.00000000 -0.00000000       0.003
   0.40000000  0.00000000  0.00000000       0.003
   0.50000000  0.00000000  0.00000000       0.005
   0.00000000  0.10000000  0.00000000       0.003
   0.10000000  0.10000000 -0.00000000       0.007
   0.20000000  0.10000000  0.00000000       0.007
   0.30000000  0.10000000 -0.00000000       0.007
   0.40000000  0.10000000  0.00000000       0.007
   0.50000000  0.10000000  0.00000000       0.010
   0.00000000  0.20000000  0.00000000       0.003
   0.10000000  0.20000000 -0.00000000       0.007
   0.20000000  0.20000000  0.00000000       0.007
   0.30000000  0.20000000 -0.00000000       0.007
   0.40000000  0.20000000  0.00000000       0.007
   0.50000000  0.20000000  0.00000000       0.010
   0.00000000  0.30000000  0.00000000       0.003
   0.10000000  0.30000000 -0.00000000       0.007
   0.20000000  0.30000000  0.00000000       0.007
   0.30000000  0.30000000 -0.00000000       0.007
   0.40000000  0.30000000  0.00000000       0.007
   0.50000000  0.30000000  0.00000000       0.010
   0.00000000  0.40000000  0.00000000       0.003
   0.10000000  0.40000000 -0.00000000       0.007
   0.20000000  0.40000000  0.00000000       0.007
   0.30000000  0.40000000 -0.00000000       0.007
   0.40000000  0.40000000  0.00000000       0.007
   0.50000000  0.40000000  0.00000000       0.010
   0.00000000  0.50000000  0.00000000       0.002
   0.10000000  0.50000000 -0.00000000       0.003
   0.20000000  0.50000000  0.00000000       0.003
   0.30000000  0.50000000 -0.00000000       0.003
   0.40000000  0.50000000  0.00000000       0.003
   0.50000000  0.50000000  0.00000000       0.005
   0.00000000  0.00000000  0.16666667       0.003
   0.10000000  0.00000000  0.16666667       0.003
   0.20000000  0.00000000  0.16666667       0.003
   0.30000000  0.00000000  0.16666667       0.003
   0.40000000  0.00000000  0.16666667       0.003
   0.50000000  0.00000000  0.16666667       0.007
  -0.40000000  0.00000000  0.16666667       0.003
  -0.30000000  0.00000000  0.16666667       0.003
  -0.20000000  0.00000000  0.16666667       0.003
  -0.10000000  0.00000000  0.16666667       0.003
   0.00000000  0.10000000  0.16666667       0.007
   0.10000000  0.10000000  0.16666667       0.007
   0.20000000  0.10000000  0.16666667       0.007
   0.30000000  0.10000000  0.16666667       0.007
   0.40000000  0.10000000  0.16666667       0.007
   0.50000000  0.10000000  0.16666667       0.013
  -0.40000000  0.10000000  0.16666667       0.007
  -0.30000000  0.10000000  0.16666667       0.007
  -0.20000000  0.10000000  0.16666667       0.007
  -0.10000000  0.10000000  0.16666667       0.007
   0.00000000  0.20000000  0.16666667       0.007
   0.10000000  0.20000000  0.16666667       0.007
   0.20000000  0.20000000  0.16666667       0.007
   0.30000000  0.20000000  0.16666667       0.007
   0.40000000  0.20000000  0.16666667       0.007
   0.50000000  0.20000000  0.16666667       0.013
  -0.40000000  0.20000000  0.16666667       0.007
  -0.30000000  0.20000000  0.16666667       0.007
  -0.20000000  0.20000000  0.16666667       0.007
  -0.10000000  0.20000000  0.16666667       0.007
   0.00000000  0.30000000  0.16666667       0.007
   0.10000000  0.30000000  0.16666667       0.007
   0.20000000  0.30000000  0.16666667       0.007
   0.30000000  0.30000000  0.16666667       0.007
   0.40000000  0.30000000  0.16666667       0.007
   0.50000000  0.30000000  0.16666667       0.013
  -0.40000000  0.30000000  0.16666667       0.007
  -0.30000000  0.30000000  0.16666667       0.007
  -0.20000000  0.30000000  0.16666667       0.007
  -0.10000000  0.30000000  0.16666667       0.007
   0.00000000  0.40000000  0.16666667       0.007
   0.10000000  0.40000000  0.16666667       0.007
   0.20000000  0.40000000  0.16666667       0.007
   0.30000000  0.40000000  0.16666667       0.007
   0.40000000  0.40000000  0.16666667       0.007
   0.50000000  0.40000000  0.16666667       0.013
  -0.40000000  0.40000000  0.16666667       0.007
  -0.30000000  0.40000000  0.16666667       0.007
  -0.20000000  0.40000000  0.16666667       0.007
  -0.10000000  0.40000000  0.16666667       0.007
   0.00000000  0.50000000  0.16666667       0.003
   0.10000000  0.50000000  0.16666667       0.003
   0.20000000  0.50000000  0.16666667       0.003
   0.30000000  0.50000000  0.16666667       0.003
   0.40000000  0.50000000  0.16666667       0.003
   0.50000000  0.50000000  0.16666667       0.007
  -0.40000000  0.50000000  0.16666667       0.003
  -0.30000000  0.50000000  0.16666667       0.003
  -0.20000000  0.50000000  0.16666667       0.003
  -0.10000000  0.50000000  0.16666667       0.003
  -0.00000000  0.00000000  0.33333333       0.003
   0.10000000  0.00000000  0.33333333       0.003
   0.20000000  0.00000000  0.33333333       0.003
   0.30000000  0.00000000  0.33333333       0.003
   0.40000000  0.00000000  0.33333333       0.003
  -0.40000000  0.00000000  0.33333333       0.003
  -0.30000000  0.00000000  0.33333333       0.003
  -0.20000000  0.00000000  0.33333333       0.003
  -0.10000000  0.00000000  0.33333333       0.003
  -0.00000000  0.10000000  0.33333333       0.007
   0.10000000  0.10000000  0.33333333       0.007
   0.20000000  0.10000000  0.33333333       0.007
   0.30000000  0.10000000  0.33333333       0.007
   0.40000000  0.10000000  0.33333333       0.007
  -0.40000000  0.10000000  0.33333333       0.007
  -0.30000000  0.10000000  0.33333333       0.007
  -0.20000000  0.10000000  0.33333333       0.007
  -0.10000000  0.10000000  0.33333333       0.007
  -0.00000000  0.20000000  0.33333333       0.007
   0.10000000  0.20000000  0.33333333       0.007
   0.20000000  0.20000000  0.33333333       0.007
   0.30000000  0.20000000  0.33333333       0.007
   0.40000000  0.20000000  0.33333333       0.007
  -0.40000000  0.20000000  0.33333333       0.007
  -0.30000000  0.20000000  0.33333333       0.007
  -0.20000000  0.20000000  0.33333333       0.007
  -0.10000000  0.20000000  0.33333333       0.007
  -0.00000000  0.30000000  0.33333333       0.007
   0.10000000  0.30000000  0.33333333       0.007
   0.20000000  0.30000000  0.33333333       0.007
   0.30000000  0.30000000  0.33333333       0.007
   0.40000000  0.30000000  0.33333333       0.007
  -0.40000000  0.30000000  0.33333333       0.007
  -0.30000000  0.30000000  0.33333333       0.007
  -0.20000000  0.30000000  0.33333333       0.007
  -0.10000000  0.30000000  0.33333333       0.007
  -0.00000000  0.40000000  0.33333333       0.007
   0.10000000  0.40000000  0.33333333       0.007
   0.20000000  0.40000000  0.33333333       0.007
   0.30000000  0.40000000  0.33333333       0.007
   0.40000000  0.40000000  0.33333333       0.007
  -0.40000000  0.40000000  0.33333333       0.007
  -0.30000000  0.40000000  0.33333333       0.007
  -0.20000000  0.40000000  0.33333333       0.007
  -0.10000000  0.40000000  0.33333333       0.007
  -0.00000000  0.50000000  0.33333333       0.003
   0.10000000  0.50000000  0.33333333       0.003
   0.20000000  0.50000000  0.33333333       0.003
   0.30000000  0.50000000  0.33333333       0.003
   0.40000000  0.50000000  0.33333333       0.003
  -0.40000000  0.50000000  0.33333333       0.003
  -0.30000000  0.50000000  0.33333333       0.003
  -0.20000000  0.50000000  0.33333333       0.003
  -0.10000000  0.50000000  0.33333333       0.003
   0.10000000  0.00000000  0.50000000       0.007
   0.20000000  0.00000000  0.50000000       0.007
   0.10000000  0.10000000  0.50000000       0.013
   0.20000000  0.10000000  0.50000000       0.013
   0.10000000  0.20000000  0.50000000       0.013
   0.20000000  0.20000000  0.50000000       0.013
   0.10000000  0.30000000  0.50000000       0.013
   0.20000000  0.30000000  0.50000000       0.013
   0.10000000  0.40000000  0.50000000       0.013
   0.20000000  0.40000000  0.50000000       0.013
   0.10000000  0.50000000  0.50000000       0.007
   0.20000000  0.50000000  0.50000000       0.007
 
 position of ions in fractional coordinates (direct lattice) 
   0.66666600  0.24999999  0.66666699
   0.66666600  0.58333332  0.66666699
   0.33333399  0.41666667  0.33333299
   0.66666600  0.91666665  0.66666699
   0.33333399  0.08333334  0.33333299
   0.33333399  0.75000000  0.33333299
 
 position of ions in cartesian coordinates  (Angst):
   0.00000150  2.87730111  3.01169821
   0.00000150  2.87730111  7.02729600
  -0.00000111  1.43865160  5.01949730
   0.00000150  2.87730111 11.04289380
  -0.00000111  1.43865160  1.00389949
  -0.00000111  1.43865160  9.03509510
 


--------------------------------------------------------------------------------------------------------


 k-point  1 :   0.0000 0.0000 0.0000  plane waves:    1737
 k-point  2 :   0.1000 0.0000-0.0000  plane waves:    1758
 k-point  3 :   0.2000 0.0000 0.0000  plane waves:    1766
 k-point  4 :   0.3000 0.0000-0.0000  plane waves:    1752
 k-point  5 :   0.4000 0.0000 0.0000  plane waves:    1748
 k-point  6 :   0.5000 0.0000 0.0000  plane waves:    1752
 k-point  7 :   0.0000 0.1000 0.0000  plane waves:    1737
 k-point  8 :   0.1000 0.1000-0.0000  plane waves:    1763
 k-point  9 :   0.2000 0.1000 0.0000  plane waves:    1761
 k-point 10 :   0.3000 0.1000-0.0000  plane waves:    1747
 k-point 11 :   0.4000 0.1000 0.0000  plane waves:    1747
 k-point 12 :   0.5000 0.1000 0.0000  plane waves:    1752
 k-point 13 :   0.0000 0.2000 0.0000  plane waves:    1767
 k-point 14 :   0.1000 0.2000-0.0000  plane waves:    1758
 k-point 15 :   0.2000 0.2000 0.0000  plane waves:    1756
 k-point 16 :   0.3000 0.2000-0.0000  plane waves:    1754
 k-point 17 :   0.4000 0.2000 0.0000  plane waves:    1742
 k-point 18 :   0.5000 0.2000 0.0000  plane waves:    1746
 k-point 19 :   0.0000 0.3000 0.0000  plane waves:    1767
 k-point 20 :   0.1000 0.3000-0.0000  plane waves:    1755
 k-point 21 :   0.2000 0.3000 0.0000  plane waves:    1761
 k-point 22 :   0.3000 0.3000-0.0000  plane waves:    1752
 k-point 23 :   0.4000 0.3000 0.0000  plane waves:    1743
 k-point 24 :   0.5000 0.3000 0.0000  plane waves:    1742
 k-point 25 :   0.0000 0.4000 0.0000  plane waves:    1766
 k-point 26 :   0.1000 0.4000-0.0000  plane waves:    1756
 k-point 27 :   0.2000 0.4000 0.0000  plane waves:    1761
 k-point 28 :   0.3000 0.4000-0.0000  plane waves:    1759
 k-point 29 :   0.4000 0.4000 0.0000  plane waves:    1739
 k-point 30 :   0.5000 0.4000 0.0000  plane waves:    1742
 k-point 31 :   0.0000 0.5000 0.0000  plane waves:    1760
 k-point 32 :   0.1000 0.5000-0.0000  plane waves:    1754
 k-point 33 :   0.2000 0.5000 0.0000  plane waves:    1762
 k-point 34 :   0.3000 0.5000-0.0000  plane waves:    1752
 k-point 35 :   0.4000 0.5000 0.0000  plane waves:    1734
 k-point 36 :   0.5000 0.5000 0.0000  plane waves:    1748
 k-point 37 :   0.0000 0.0000 0.1667  plane waves:    1760
 k-point 38 :   0.1000 0.0000 0.1667  plane waves:    1756
 k-point 39 :   0.2000 0.0000 0.1667  plane waves:    1752
 k-point 40 :   0.3000 0.0000 0.1667  plane waves:    1756
 k-point 41 :   0.4000 0.0000 0.1667  plane waves:    1743
 k-point 42 :   0.5000 0.0000 0.1667  plane waves:    1737
 k-point 43 :  -0.4000 0.0000 0.1667  plane waves:    1732
 k-point 44 :  -0.3000 0.0000 0.1667  plane waves:    1747
 k-point 45 :  -0.2000 0.0000 0.1667  plane waves:    1748
 k-point 46 :  -0.1000 0.0000 0.1667  plane waves:    1752
 k-point 47 :   0.0000 0.1000 0.1667  plane waves:    1760
 k-point 48 :   0.1000 0.1000 0.1667  plane waves:    1756
 k-point 49 :   0.2000 0.1000 0.1667  plane waves:    1755
 k-point 50 :   0.3000 0.1000 0.1667  plane waves:    1757
 k-point 51 :   0.4000 0.1000 0.1667  plane waves:    1745
 k-point 52 :   0.5000 0.1000 0.1667  plane waves:    1739
 k-point 53 :  -0.4000 0.1000 0.1667  plane waves:    1732
 k-point 54 :  -0.3000 0.1000 0.1667  plane waves:    1746
 k-point 55 :  -0.2000 0.1000 0.1667  plane waves:    1748
 k-point 56 :  -0.1000 0.1000 0.1667  plane waves:    1754
 k-point 57 :   0.0000 0.2000 0.1667  plane waves:    1756
 k-point 58 :   0.1000 0.2000 0.1667  plane waves:    1757
 k-point 59 :   0.2000 0.2000 0.1667  plane waves:    1758
 k-point 60 :   0.3000 0.2000 0.1667  plane waves:    1755
 k-point 61 :   0.4000 0.2000 0.1667  plane waves:    1744
 k-point 62 :   0.5000 0.2000 0.1667  plane waves:    1735
 k-point 63 :  -0.4000 0.2000 0.1667  plane waves:    1734
 k-point 64 :  -0.3000 0.2000 0.1667  plane waves:    1740
 k-point 65 :  -0.2000 0.2000 0.1667  plane waves:    1745
 k-point 66 :  -0.1000 0.2000 0.1667  plane waves:    1755
 k-point 67 :   0.0000 0.3000 0.1667  plane waves:    1763
 k-point 68 :   0.1000 0.3000 0.1667  plane waves:    1760
 k-point 69 :   0.2000 0.3000 0.1667  plane waves:    1763
 k-point 70 :   0.3000 0.3000 0.1667  plane waves:    1750
 k-point 71 :   0.4000 0.3000 0.1667  plane waves:    1742
 k-point 72 :   0.5000 0.3000 0.1667  plane waves:    1739
 k-point 73 :  -0.4000 0.3000 0.1667  plane waves:    1736
 k-point 74 :  -0.3000 0.3000 0.1667  plane waves:    1738
 k-point 75 :  -0.2000 0.3000 0.1667  plane waves:    1742
 k-point 76 :  -0.1000 0.3000 0.1667  plane waves:    1758
 k-point 77 :   0.0000 0.4000 0.1667  plane waves:    1759
 k-point 78 :   0.1000 0.4000 0.1667  plane waves:    1758
 k-point 79 :   0.2000 0.4000 0.1667  plane waves:    1763
 k-point 80 :   0.3000 0.4000 0.1667  plane waves:    1749
 k-point 81 :   0.4000 0.4000 0.1667  plane waves:    1743
 k-point 82 :   0.5000 0.4000 0.1667  plane waves:    1736
 k-point 83 :  -0.4000 0.4000 0.1667  plane waves:    1734
 k-point 84 :  -0.3000 0.4000 0.1667  plane waves:    1738
 k-point 85 :  -0.2000 0.4000 0.1667  plane waves:    1744
 k-point 86 :  -0.1000 0.4000 0.1667  plane waves:    1758
 k-point 87 :   0.0000 0.5000 0.1667  plane waves:    1762
 k-point 88 :   0.1000 0.5000 0.1667  plane waves:    1760
 k-point 89 :   0.2000 0.5000 0.1667  plane waves:    1768
 k-point 90 :   0.3000 0.5000 0.1667  plane waves:    1746
 k-point 91 :   0.4000 0.5000 0.1667  plane waves:    1738
 k-point 92 :   0.5000 0.5000 0.1667  plane waves:    1738
 k-point 93 :  -0.4000 0.5000 0.1667  plane waves:    1734
 k-point 94 :  -0.3000 0.5000 0.1667  plane waves:    1738
 k-point 95 :  -0.2000 0.5000 0.1667  plane waves:    1742
 k-point 96 :  -0.1000 0.5000 0.1667  plane waves:    1760
 k-point 97 :  -0.0000 0.0000 0.3333  plane waves:    1750
 k-point 98 :   0.1000 0.0000 0.3333  plane waves:    1754
 k-point 99 :   0.2000 0.0000 0.3333  plane waves:    1754
 k-point ** :   0.3000 0.0000 0.3333  plane waves:    1744
 k-point ** :   0.4000 0.0000 0.3333  plane waves:    1751
 k-point ** :  -0.4000 0.0000 0.3333  plane waves:    1725
 k-point ** :  -0.3000 0.0000 0.3333  plane waves:    1711
 k-point ** :  -0.2000 0.0000 0.3333  plane waves:    1740
 k-point ** :  -0.1000 0.0000 0.3333  plane waves:    1744
 k-point ** :  -0.0000 0.1000 0.3333  plane waves:    1746
 k-point ** :   0.1000 0.1000 0.3333  plane waves:    1756
 k-point ** :   0.2000 0.1000 0.3333  plane waves:    1754
 k-point ** :   0.3000 0.1000 0.3333  plane waves:    1748
 k-point ** :   0.4000 0.1000 0.3333  plane waves:    1743
 k-point ** :  -0.4000 0.1000 0.3333  plane waves:    1724
 k-point ** :  -0.3000 0.1000 0.3333  plane waves:    1712
 k-point ** :  -0.2000 0.1000 0.3333  plane waves:    1733
 k-point ** :  -0.1000 0.1000 0.3333  plane waves:    1743
 k-point ** :  -0.0000 0.2000 0.3333  plane waves:    1749
 k-point ** :   0.1000 0.2000 0.3333  plane waves:    1754
 k-point ** :   0.2000 0.2000 0.3333  plane waves:    1752
 k-point ** :   0.3000 0.2000 0.3333  plane waves:    1753
 k-point ** :   0.4000 0.2000 0.3333  plane waves:    1743
 k-point ** :  -0.4000 0.2000 0.3333  plane waves:    1722
 k-point ** :  -0.3000 0.2000 0.3333  plane waves:    1707
 k-point ** :  -0.2000 0.2000 0.3333  plane waves:    1732
 k-point ** :  -0.1000 0.2000 0.3333  plane waves:    1747
 k-point ** :  -0.0000 0.3000 0.3333  plane waves:    1751
 k-point ** :   0.1000 0.3000 0.3333  plane waves:    1751
 k-point ** :   0.2000 0.3000 0.3333  plane waves:    1746
 k-point ** :   0.3000 0.3000 0.3333  plane waves:    1753
 k-point ** :   0.4000 0.3000 0.3333  plane waves:    1743
 k-point ** :  -0.4000 0.3000 0.3333  plane waves:    1720
 k-point ** :  -0.3000 0.3000 0.3333  plane waves:    1707
 k-point ** :  -0.2000 0.3000 0.3333  plane waves:    1729
 k-point ** :  -0.1000 0.3000 0.3333  plane waves:    1745
 k-point ** :  -0.0000 0.4000 0.3333  plane waves:    1751
 k-point ** :   0.1000 0.4000 0.3333  plane waves:    1747
 k-point ** :   0.2000 0.4000 0.3333  plane waves:    1746
 k-point ** :   0.3000 0.4000 0.3333  plane waves:    1752
 k-point ** :   0.4000 0.4000 0.3333  plane waves:    1745
 k-point ** :  -0.4000 0.4000 0.3333  plane waves:    1716
 k-point ** :  -0.3000 0.4000 0.3333  plane waves:    1706
 k-point ** :  -0.2000 0.4000 0.3333  plane waves:    1730
 k-point ** :  -0.1000 0.4000 0.3333  plane waves:    1746
 k-point ** :  -0.0000 0.5000 0.3333  plane waves:    1746
 k-point ** :   0.1000 0.5000 0.3333  plane waves:    1748
 k-point ** :   0.2000 0.5000 0.3333  plane waves:    1744
 k-point ** :   0.3000 0.5000 0.3333  plane waves:    1750
 k-point ** :   0.4000 0.5000 0.3333  plane waves:    1746
 k-point ** :  -0.4000 0.5000 0.3333  plane waves:    1720
 k-point ** :  -0.3000 0.5000 0.3333  plane waves:    1704
 k-point ** :  -0.2000 0.5000 0.3333  plane waves:    1732
 k-point ** :  -0.1000 0.5000 0.3333  plane waves:    1744
 k-point ** :   0.1000 0.0000 0.5000  plane waves:    1733
 k-point ** :   0.2000 0.0000 0.5000  plane waves:    1739
 k-point ** :   0.1000 0.1000 0.5000  plane waves:    1737
 k-point ** :   0.2000 0.1000 0.5000  plane waves:    1740
 k-point ** :   0.1000 0.2000 0.5000  plane waves:    1738
 k-point ** :   0.2000 0.2000 0.5000  plane waves:    1733
 k-point ** :   0.1000 0.3000 0.5000  plane waves:    1738
 k-point ** :   0.2000 0.3000 0.5000  plane waves:    1734
 k-point ** :   0.1000 0.4000 0.5000  plane waves:    1743
 k-point ** :   0.2000 0.4000 0.5000  plane waves:    1731
 k-point ** :   0.1000 0.5000 0.5000  plane waves:    1744
 k-point ** :   0.2000 0.5000 0.5000  plane waves:    1734

 maximum and minimum number of plane-waves per node :       466      418

 maximum number of plane-waves:      1768
 maximum index in each direction: 
   IXMAX=    5   IYMAX=   22   IZMAX=    4
   IXMIN=   -5   IYMIN=  -22   IZMIN=   -5


 parallel 3D FFT for wavefunctions:
    minimum data exchange during FFTs selected (reduces bandwidth)
 parallel 3D FFT for charge:
    minimum data exchange during FFTs selected (reduces bandwidth)


 total amount of memory used by VASP MPI-rank0    82029. kBytes
=======================================================================

   base      :      30000. kBytes
   nonl-proj :      10306. kBytes
   fftplans  :        666. kBytes
   grid      :       1514. kBytes
   one-center:         62. kBytes
   wavefun   :      39481. kBytes
 
     INWAV:  cpu time    0.0000: real time    0.0001
 Broyden mixing: mesh for mixing (old mesh)
   NGX =  9   NGY = 45   NGZ =  9
  (NGX  = 28   NGY  =140   NGZ  = 28)
  gives a total of   3645 points

 initial charge density was supplied:
 charge density of overlapping atoms calculated
 number of electron      54.0000000 magnetization       0.0000000
 keeping initial charge density in first step


--------------------------------------------------------------------------------------------------------


 Maximum index for augmentation-charges         1222 (set IRDMAX)


--------------------------------------------------------------------------------------------------------


 First call to EWALD:  gamma=   0.441
 Maximum number of real-space cells 5x 1x 5
 Maximum number of reciprocal cells 2x 7x 2

    FEWALD:  cpu time    0.0013: real time    0.0013


--------------------------------------- Iteration      1(   1)  ---------------------------------------


    POTLOK:  cpu time    0.0261: real time    0.0295
    SETDIJ:  cpu time    0.0068: real time    0.0068
     EDDAV:  cpu time    5.2580: real time    5.2812
 BZINTS: Fermi energy: 23.809386; 54.000000 electrons
         Band energy: 960.829903;  BLOECHL correction: -0.117688
       DOS:  cpu time    0.1975: real time    0.1981
    --------------------------------------------
      LOOP:  cpu time    5.4884: real time    5.5156

 eigenvalue-minimisations  : 20736
 total energy-change (2. order) : 0.3911977E+03  (-0.2420739E+04)
 number of electron      54.0000000 magnetization      -0.0000000
 augmentation part       54.0000000 magnetization      -0.0000000

 Free energy of the ion-electron system (eV)
  ---------------------------------------------------
  alpha Z        PSCENC =       235.39675949
  Ewald energy   TEWEN  =     -4572.39717205
  -Hartree energ DENC   =      -896.97518501
  -exchange      EXHF   =         0.00000000
  -V(xc)+E(xc)   XCENC  =       102.20159839
  PAW double counting   =      4324.36920757    -4642.41249709
  entropy T*S    EENTRO =         0.00000000
  eigenvalues    EBANDS =       960.82990261
  atomic energy  EATOM  =      4880.18513326
  Solvation  Ediel_sol  =         0.00000000
  ---------------------------------------------------
  free energy    TOTEN  =       391.19774716 eV

  energy without entropy =      391.19774716  energy(sigma->0) =      391.19774716


--------------------------------------------------------------------------------------------------------




--------------------------------------- Iteration      1(   2)  ---------------------------------------


     EDDAV:  cpu time    5.2633: real time    5.2787
 BZINTS: Fermi energy: 13.838098; 54.000000 electrons
         Band energy: 556.017081;  BLOECHL correction: -0.127589
       DOS:  cpu time    0.1995: real time    0.2000
    --------------------------------------------
      LOOP:  cpu time    5.4628: real time    5.4787

 eigenvalue-minimisations  : 20872
 total energy-change (2. order) :-0.4048128E+03  (-0.3958906E+03)
 number of electron      54.0000000 magnetization      -0.0000000
 augmentation part       54.0000000 magnetization      -0.0000000

 Free energy of the ion-electron system (eV)
  ---------------------------------------------------
  alpha Z        PSCENC =       235.39675949
  Ewald energy   TEWEN  =     -4572.39717205
  -Hartree energ DENC   =      -896.97518501
  -exchange      EXHF   =         0.00000000
  -V(xc)+E(xc)   XCENC  =       102.20159839
  PAW double counting   =      4324.36920757    -4642.41249709
  entropy T*S    EENTRO =         0.00000000
  eigenvalues    EBANDS =       556.01708089
  atomic energy  EATOM  =      4880.18513326
  Solvation  Ediel_sol  =         0.00000000
  ---------------------------------------------------
  free energy    TOTEN  =       -13.61507456 eV

  energy without entropy =      -13.61507456  energy(sigma->0) =      -13.61507456


--------------------------------------------------------------------------------------------------------




--------------------------------------- Iteration      1(   3)  ---------------------------------------


     EDDAV:  cpu time    6.0446: real time    6.0596
 BZINTS: Fermi energy: 12.775114; 54.000000 electrons
         Band energy: 523.828597;  BLOECHL correction: -0.140132
       DOS:  cpu time    0.1934: real time    0.1939
    --------------------------------------------
      LOOP:  cpu time    6.2380: real time    6.2535

 eigenvalue-minimisations  : 25056
 total energy-change (2. order) :-0.3218848E+02  (-0.3063318E+02)
 number of electron      54.0000000 magnetization      -0.0000000
 augmentation part       54.0000000 magnetization      -0.0000000

 Free energy of the ion-electron system (eV)
  ---------------------------------------------------
  alpha Z        PSCENC =       235.39675949
  Ewald energy   TEWEN  =     -4572.39717205
  -Hartree energ DENC   =      -896.97518501
  -exchange      EXHF   =         0.00000000
  -V(xc)+E(xc)   XCENC  =       102.20159839
  PAW double counting   =      4324.36920757    -4642.41249709
  entropy T*S    EENTRO =         0.00000000
  eigenvalues    EBANDS =       523.82859741
  atomic energy  EATOM  =      4880.18513326
  Solvation  Ediel_sol  =         0.00000000
  ---------------------------------------------------
  free energy    TOTEN  =       -45.80355804 eV

  energy without entropy =      -45.80355804  energy(sigma->0) =      -45.80355804


--------------------------------------------------------------------------------------------------------




--------------------------------------- Iteration      1(   4)  ---------------------------------------


     EDDAV:  cpu time    6.7008: real time    6.7174
 BZINTS: Fermi energy: 12.622239; 54.000000 electrons
         Band energy: 521.164542;  BLOECHL correction: -0.122188
       DOS:  cpu time    0.1875: real time    0.1880
    --------------------------------------------
      LOOP:  cpu time    6.8883: real time    6.9054

 eigenvalue-minimisations  : 28456
 total energy-change (2. order) :-0.2664056E+01  (-0.2557214E+01)
 number of electron      54.0000000 magnetization      -0.0000000
 augmentation part       54.0000000 magnetization      -0.0000000

 Free energy of the ion-electron system (eV)
  ---------------------------------------------------
  alpha Z        PSCENC =       235.39675949
  Ewald energy   TEWEN  =     -4572.39717205
  -Hartree energ DENC   =      -896.97518501
  -exchange      EXHF   =         0.00000000
  -V(xc)+E(xc)   XCENC  =       102.20159839
  PAW double counting   =      4324.36920757    -4642.41249709
  entropy T*S    EENTRO =         0.00000000
  eigenvalues    EBANDS =       521.16454181
  atomic energy  EATOM  =      4880.18513326
  Solvation  Ediel_sol  =         0.00000000
  ---------------------------------------------------
  free energy    TOTEN  =       -48.46761364 eV

  energy without entropy =      -48.46761364  energy(sigma->0) =      -48.46761364


--------------------------------------------------------------------------------------------------------




--------------------------------------- Iteration      1(   5)  ---------------------------------------


     EDDAV:  cpu time    6.7994: real time    6.8162
 BZINTS: Fermi energy: 12.617565; 54.000000 electrons
         Band energy: 521.071118;  BLOECHL correction: -0.123314
       DOS:  cpu time    0.1768: real time    0.1772
    CHARGE:  cpu time    0.3346: real time    0.3354
    MIXING:  cpu time    0.0006: real time    0.0006
    --------------------------------------------
      LOOP:  cpu time    7.3113: real time    7.3295

 eigenvalue-minimisations  : 29768
 total energy-change (2. order) :-0.9342334E-01  (-0.9205033E-01)
 number of electron      54.0000030 magnetization      -0.0000000
 augmentation part       27.3738544 magnetization      -0.0000000

 Broyden mixing:
  rms(total) = 0.25541E+01    rms(broyden)= 0.25541E+01
  rms(prec ) = 0.28597E+01
  weight for this iteration     100.00

 Free energy of the ion-electron system (eV)
  ---------------------------------------------------
  alpha Z        PSCENC =       235.39675949
  Ewald energy   TEWEN  =     -4572.39717205
  -Hartree energ DENC   =      -896.97518501
  -exchange      EXHF   =         0.00000000
  -V(xc)+E(xc)   XCENC  =       102.20159839
  PAW double counting   =      4324.36920757    -4642.41249709
  entropy T*S    EENTRO =         0.00000000
  eigenvalues    EBANDS =       521.07111847
  atomic energy  EATOM  =      4880.18513326
  Solvation  Ediel_sol  =         0.00000000
  ---------------------------------------------------
  free energy    TOTEN  =       -48.56103698 eV

  energy without entropy =      -48.56103698  energy(sigma->0) =      -48.56103698


--------------------------------------------------------------------------------------------------------




--------------------------------------- Iteration      1(   6)  ---------------------------------------


    POTLOK:  cpu time    0.0190: real time    0.0192
    SETDIJ:  cpu time    0.0071: real time    0.0071
     EDDAV:  cpu time    6.2675: real time    6.2830
 BZINTS: Fermi energy:  9.274514; 54.000000 electrons
         Band energy: 385.069203;  BLOECHL correction: -0.136376
       DOS:  cpu time    0.1739: real time    0.1743
    CHARGE:  cpu time    0.3276: real time    0.3284
    MIXING:  cpu time    0.0007: real time    0.0007
    --------------------------------------------
      LOOP:  cpu time    6.7959: real time    6.8127

 eigenvalue-minimisations  : 26712
 total energy-change (2. order) : 0.4852429E+01  (-0.9243444E+01)
 number of electron      54.0000035 magnetization      -0.0000000
 augmentation part       32.1965142 magnetization      -0.0000000

 Broyden mixing:
  rms(total) = 0.19643E+01    rms(broyden)= 0.19643E+01
  rms(prec ) = 0.24024E+01
  weight for this iteration     100.00

 eigenvalues of (default mixing * dielectric matrix)
  average eigenvalue GAMMA=   0.5395
  0.5395

 Free energy of the ion-electron system (eV)
  ---------------------------------------------------
  alpha Z        PSCENC =       235.39675949
  Ewald energy   TEWEN  =     -4572.39717205
  -Hartree energ DENC   =      -783.44961917
  -exchange      EXHF   =         0.00000000
  -V(xc)+E(xc)   XCENC  =        96.61281620
  PAW double counting   =      4751.31737632    -5036.44310555
  entropy T*S    EENTRO =         0.00000000
  eigenvalues    EBANDS =       385.06920350
  atomic energy  EATOM  =      4880.18513326
  Solvation  Ediel_sol  =         0.00000000
  ---------------------------------------------------
  free energy    TOTEN  =       -43.70860801 eV

  energy without entropy =      -43.70860801  energy(sigma->0) =      -43.70860801


--------------------------------------------------------------------------------------------------------




--------------------------------------- Iteration      1(   7)  ---------------------------------------


    POTLOK:  cpu time    0.0167: real time    0.0169
    SETDIJ:  cpu time    0.0060: real time    0.0060
     EDDAV:  cpu time    7.5841: real time    7.6042
 BZINTS: Fermi energy: 11.150649; 54.000000 electrons
         Band energy: 407.365875;  BLOECHL correction: -0.108362
       DOS:  cpu time    0.1680: real time    0.1684
    CHARGE:  cpu time    0.3305: real time    0.3313
    MIXING:  cpu time    0.0006: real time    0.0006
    --------------------------------------------
      LOOP:  cpu time    8.1059: real time    8.1273

 eigenvalue-minimisations  : 36776
 total energy-change (2. order) :-0.1227413E+02  (-0.1373829E+02)
 number of electron      54.0000029 magnetization      -0.0000000
 augmentation part       30.9606674 magnetization      -0.0000000

 Broyden mixing:
  rms(total) = 0.43008E+01    rms(broyden)= 0.43008E+01
  rms(prec ) = 0.54554E+01
  weight for this iteration     100.00

 eigenvalues of (default mixing * dielectric matrix)
  average eigenvalue GAMMA=   0.5208
  0.8664  0.1752

 Free energy of the ion-electron system (eV)
  ---------------------------------------------------
  alpha Z        PSCENC =       235.39675949
  Ewald energy   TEWEN  =     -4572.39717205
  -Hartree energ DENC   =      -803.33812241
  -exchange      EXHF   =         0.00000000
  -V(xc)+E(xc)   XCENC  =        98.06331419
  PAW double counting   =      4919.07388907    -5220.33241016
  entropy T*S    EENTRO =         0.00000000
  eigenvalues    EBANDS =       407.36587485
  atomic energy  EATOM  =      4880.18513326
  Solvation  Ediel_sol  =         0.00000000
  ---------------------------------------------------
  free energy    TOTEN  =       -55.98273377 eV

  energy without entropy =      -55.98273377  energy(sigma->0) =      -55.98273377


--------------------------------------------------------------------------------------------------------




--------------------------------------- Iteration      1(   8)  ---------------------------------------


    POTLOK:  cpu time    0.0185: real time    0.0186
    SETDIJ:  cpu time    0.0070: real time    0.0070
     EDDAV:  cpu time    6.9046: real time    6.9218
 BZINTS: Fermi energy: 10.576044; 54.000000 electrons
         Band energy: 435.606550;  BLOECHL correction: -0.134871
       DOS:  cpu time    0.1658: real time    0.1662
    CHARGE:  cpu time    0.3213: real time    0.3221
    MIXING:  cpu time    0.0006: real time    0.0006
    --------------------------------------------
      LOOP:  cpu time    7.4178: real time    7.4363

 eigenvalue-minimisations  : 33208
 total energy-change (2. order) : 0.1431257E+02  (-0.3062058E+01)
 number of electron      54.0000032 magnetization      -0.0000000
 augmentation part       30.5793051 magnetization      -0.0000000

 Broyden mixing:
  rms(total) = 0.10146E+01    rms(broyden)= 0.10146E+01
  rms(prec ) = 0.13229E+01
  weight for this iteration     100.00

 eigenvalues of (default mixing * dielectric matrix)
  average eigenvalue GAMMA=   0.5899
  1.0947  0.4784  0.1965

 Free energy of the ion-electron system (eV)
  ---------------------------------------------------
  alpha Z        PSCENC =       235.39675949
  Ewald energy   TEWEN  =     -4572.39717205
  -Hartree energ DENC   =      -809.11895937
  -exchange      EXHF   =         0.00000000
  -V(xc)+E(xc)   XCENC  =        97.97457190
  PAW double counting   =      5033.21199670    -5342.52904637
  entropy T*S    EENTRO =         0.00000000
  eigenvalues    EBANDS =       435.60655011
  atomic energy  EATOM  =      4880.18513326
  Solvation  Ediel_sol  =         0.00000000
  ---------------------------------------------------
  free energy    TOTEN  =       -41.67016633 eV

  energy without entropy =      -41.67016633  energy(sigma->0) =      -41.67016633


--------------------------------------------------------------------------------------------------------




--------------------------------------- Iteration      1(   9)  ---------------------------------------


    POTLOK:  cpu time    0.0167: real time    0.0168
    SETDIJ:  cpu time    0.0060: real time    0.0060
     EDDAV:  cpu time    6.8738: real time    6.8906
 BZINTS: Fermi energy: 10.381331; 54.000000 electrons
         Band energy: 431.468841;  BLOECHL correction: -0.115791
       DOS:  cpu time    0.1619: real time    0.1623
    CHARGE:  cpu time    0.3190: real time    0.3198
    MIXING:  cpu time    0.0007: real time    0.0007
    --------------------------------------------
      LOOP:  cpu time    7.3781: real time    7.3961

 eigenvalue-minimisations  : 34880
 total energy-change (2. order) :-0.2479997E+00  (-0.1114421E+01)
 number of electron      54.0000033 magnetization      -0.0000000
 augmentation part       30.6781793 magnetization      -0.0000000

 Broyden mixing:
  rms(total) = 0.77197E+00    rms(broyden)= 0.77193E+00
  rms(prec ) = 0.10140E+01
  weight for this iteration     100.00

 eigenvalues of (default mixing * dielectric matrix)
  average eigenvalue GAMMA=   0.6204
  1.2904  0.2071  0.4921  0.4921

 Free energy of the ion-electron system (eV)
  ---------------------------------------------------
  alpha Z        PSCENC =       235.39675949
  Ewald energy   TEWEN  =     -4572.39717205
  -Hartree energ DENC   =      -802.79345822
  -exchange      EXHF   =         0.00000000
  -V(xc)+E(xc)   XCENC  =        98.29003349
  PAW double counting   =      5181.76269250    -5493.83099580
  entropy T*S    EENTRO =         0.00000000
  eigenvalues    EBANDS =       431.46884129
  atomic energy  EATOM  =      4880.18513326
  Solvation  Ediel_sol  =         0.00000000
  ---------------------------------------------------
  free energy    TOTEN  =       -41.91816605 eV

  energy without entropy =      -41.91816605  energy(sigma->0) =      -41.91816605


--------------------------------------------------------------------------------------------------------




--------------------------------------- Iteration      1(  10)  ---------------------------------------


    POTLOK:  cpu time    0.0161: real time    0.0162
    SETDIJ:  cpu time    0.0059: real time    0.0059
     EDDAV:  cpu time    6.2874: real time    6.3027
 BZINTS: Fermi energy: 10.408431; 54.000000 electrons
         Band energy: 430.198522;  BLOECHL correction: -0.119025
       DOS:  cpu time    0.1575: real time    0.1579
    CHARGE:  cpu time    0.3146: real time    0.3154
    MIXING:  cpu time    0.0007: real time    0.0007
    --------------------------------------------
      LOOP:  cpu time    6.7822: real time    6.7987

 eigenvalue-minimisations  : 31808
 total energy-change (2. order) : 0.2126686E+00  (-0.1925894E+00)
[...]
     17       8.8744      1.00000
     18       9.0705      1.00000
     19       9.1306      1.00000
     20       9.2262      1.00000
     21       9.5528      1.00000
     22       9.5873      1.00000
     23       9.7408      1.00000
     24      10.2183      1.00000
     25      10.3494      0.93385
     26      10.4802      0.33616
     27      10.7804     -0.04489
     28      11.0665     -0.01481
     29      11.1234      0.00000
     30      11.3900      0.00000
     31      11.8090      0.00000
     32      12.3938      0.00000

 k-point   160 :       0.2000    0.4000    0.5000
  band No.  band energies     occupation 
      1       5.8797      1.00000
      2       5.8847      1.00000
      3       6.2219      1.00000
      4       6.2961      1.00000
      5       6.3889      1.00000
      6       6.6244      1.00000
      7       6.8771      1.00000
      8       6.9236      1.00000
      9       7.1476      1.00000
     10       7.4153      1.00000
     11       7.4836      1.00000
     12       7.6156      1.00000
     13       7.8627      1.00000
     14       8.0172      1.00000
     15       8.0625      1.00000
     16       8.3699      1.00000
     17       8.4311      1.00000
     18       8.5993      1.00000
     19       8.8637      1.00000
     20       8.8862      1.00000
     21       9.3590      1.00000
     22       9.5179      1.00000
     23       9.6185      1.00000
     24      10.0174      1.00000
     25      10.0805      1.00192
     26      10.1898      0.99392
     27      10.6780      0.02752
     28      10.7655     -0.06024
     29      11.1043      0.00000
     30      11.4129      0.00000
     31      11.8657      0.00000
     32      12.5358      0.00000

 k-point   161 :       0.1000    0.5000    0.5000
  band No.  band energies     occupation 
      1       5.5397      1.00000
      2       5.5424      1.00000
      3       5.8578      1.00000
      4       6.1021      1.00000
      5       6.1750      1.00000
      6       6.5296      1.00000
      7       6.7723      1.00000
      8       6.9342      1.00000
      9       7.1630      1.00000
     10       7.2822      1.00000
     11       7.6067      1.00000
     12       7.6329      1.00000
     13       7.8396      1.00000
     14       8.2768      1.00000
     15       8.5088      1.00000
     16       8.7525      1.00000
     17       8.9216      1.00000
     18       9.0338      1.00000
     19       9.1347      1.00000
     20       9.2018      1.00000
     21       9.5564      1.00000
     22       9.5787      1.00000
     23       9.7431      1.00000
     24      10.2135      1.00000
     25      10.3742      0.88915
     26      10.4600      0.36881
     27      10.7759     -0.04370
     28      11.0729     -0.01435
     29      11.1218      0.00000
     30      11.3918      0.00000
     31      11.8088      0.00000
     32      12.4080      0.00000

 k-point   162 :       0.2000    0.5000    0.5000
  band No.  band energies     occupation 
      1       5.8791      1.00000
      2       5.8845      1.00000
      3       6.2308      1.00000
      4       6.2878      1.00000
      5       6.3895      1.00000
      6       6.6220      1.00000
      7       6.8980      1.00000
      8       6.9015      1.00000
      9       7.1574      1.00000
     10       7.3999      1.00000
     11       7.5023      1.00000
     12       7.5957      1.00000
     13       7.8665      1.00000
     14       8.0409      1.00000
     15       8.0507      1.00000
     16       8.3707      1.00000
     17       8.4258      1.00000
     18       8.6059      1.00000
     19       8.8683      1.00000
     20       8.8717      1.00000
     21       9.3599      1.00000
     22       9.5139      1.00000
     23       9.6163      1.00000
     24      10.0165      1.00000
     25      10.0840      1.00371
     26      10.2010      0.99385
     27      10.6796      0.02990
     28      10.7553     -0.05953
     29      11.1049      0.00000
     30      11.4149      0.00000
     31      11.8711      0.00000
     32      12.5320      0.00000


--------------------------------------------------------------------------------------------------------


 soft charge-density along one line, spin component           1
         0         1         2         3         4         5         6         7         8         9
 total charge-density along one line
 
 soft charge-density along one line, spin component           2
         0         1         2         3         4         5         6         7         8         9
 total charge-density along one line
 
 pseudopotential strength for first ion, spin component:           1
 -0.473  -0.000  -0.000   0.015  -0.000  -1.113  -0.000  -0.000
 -0.000  -0.478  -0.000   0.000   0.015  -0.000  -1.117  -0.000
 -0.000  -0.000  -0.503  -0.000   0.000  -0.000  -0.000  -1.142
  0.015   0.000  -0.000  -0.478  -0.000   0.015   0.000  -0.000
 -0.000   0.015   0.000  -0.000  -0.473  -0.000   0.015   0.000
 -1.113  -0.000  -0.000   0.015  -0.000  -1.693  -0.000  -0.000
 -0.000  -1.117  -0.000   0.000   0.015  -0.000  -1.697  -0.000
 -0.000  -0.000  -1.142  -0.000   0.000  -0.000  -0.000  -1.721
  0.015   0.000  -0.000  -1.117  -0.000   0.014   0.000  -0.000
 -0.000   0.015   0.000  -0.000  -1.113  -0.000   0.014   0.000
 -0.000   0.000   0.001   0.000   0.000  -0.000   0.000   0.001
 -0.000   0.000   0.002   0.000   0.000  -0.000   0.000   0.002
  0.000   0.004   0.000  -0.000   0.001   0.000   0.004   0.000
 -0.000  -0.000   0.007   0.000  -0.000  -0.000  -0.000   0.007
  0.001  -0.000  -0.000   0.004   0.000   0.001  -0.000  -0.000
  0.000   0.006   0.000  -0.000   0.001   0.000   0.005   0.000
 -0.000  -0.000   0.009   0.000  -0.000  -0.000  -0.000   0.009
  0.001  -0.000  -0.000   0.006   0.000   0.001  -0.000  -0.000
 pseudopotential strength for first ion, spin component:           2
  0.672  -0.000  -0.000   0.002   0.000  -0.016  -0.000  -0.000
 -0.000   0.639  -0.000   0.000   0.002  -0.000  -0.048  -0.000
 -0.000  -0.000   0.648  -0.000   0.000  -0.000  -0.000  -0.039
  0.002   0.000  -0.000   0.639  -0.000   0.001   0.000  -0.000
  0.000   0.002   0.000  -0.000   0.672   0.000   0.001   0.000
 -0.016  -0.000  -0.000   0.001   0.000  -0.643  -0.000  -0.000
 -0.000  -0.048  -0.000   0.000   0.001  -0.000  -0.673  -0.000
 -0.000  -0.000  -0.039  -0.000   0.000  -0.000  -0.000  -0.664
  0.001   0.000  -0.000  -0.048  -0.000   0.001   0.000  -0.000
  0.000   0.001   0.000  -0.000  -0.016   0.000   0.001   0.000
 -0.000   0.000   0.004   0.000   0.000  -0.000   0.000   0.004
 -0.000   0.000   0.008   0.000   0.000  -0.000   0.000   0.008
  0.000   0.001   0.000   0.000   0.001   0.000   0.001   0.000
  0.000  -0.000   0.001   0.000   0.000   0.000  -0.000   0.001
  0.001   0.000  -0.000   0.001   0.000   0.001   0.000  -0.000
  0.000   0.001   0.000   0.000   0.001   0.000   0.001   0.000
  0.000  -0.000   0.001   0.000   0.000   0.000  -0.000   0.000
  0.001   0.000  -0.000   0.001   0.000   0.001   0.000  -0.000
 total augmentation occupancy for first ion, spin component:           1
  2.812  -0.000  -0.000   0.185   0.000  -1.484   0.000   0.000  -0.114  -0.000   0.000  -0.000   0.000  -0.000  -0.029  -0.000
 -0.000   2.766  -0.000   0.000   0.185   0.000  -1.418   0.000  -0.000  -0.113  -0.000   0.000  -0.003  -0.000  -0.000  -0.002
 -0.000  -0.000   2.777  -0.000  -0.000   0.000   0.000  -1.527   0.000   0.000  -0.072   0.003   0.000   0.052   0.000  -0.000
  0.185   0.000  -0.000   2.766   0.000  -0.113  -0.000   0.000  -1.418  -0.000  -0.000  -0.000  -0.000   0.000  -0.003  -0.000
  0.000   0.185  -0.000   0.000   2.812  -0.000  -0.114   0.000  -0.000  -1.484   0.000  -0.000  -0.029  -0.000  -0.000   0.003
 -1.484   0.000   0.000  -0.113  -0.000   1.715  -0.000  -0.000   0.077   0.000  -0.000  -0.000  -0.000   0.000   0.050   0.000
  0.000  -1.418   0.000  -0.000  -0.114  -0.000   1.618  -0.000   0.000   0.077   0.000   0.000   0.004  -0.000   0.000  -0.000
  0.000   0.000  -1.527   0.000   0.000  -0.000  -0.000   1.826  -0.000  -0.000   0.050   0.001  -0.000  -0.026  -0.000   0.000
 -0.114  -0.000   0.000  -1.418  -0.000   0.077   0.000  -0.000   1.618   0.000   0.000  -0.000   0.000   0.000   0.004  -0.000
 -0.000  -0.113   0.000  -0.000  -1.484   0.000   0.077  -0.000   0.000   1.715  -0.000  -0.000   0.050   0.000   0.000  -0.004
  0.000   0.000  -0.072  -0.000   0.000  -0.000  -0.000   0.050  -0.000  -0.000   2.294  -0.266   0.000  -0.001   0.000   0.000
 -0.000   0.000   0.003  -0.000  -0.000  -0.000   0.000   0.001   0.000  -0.000  -0.266   0.039   0.000  -0.001   0.000  -0.000
  0.000  -0.003   0.000  -0.000  -0.029  -0.000   0.004  -0.000   0.000   0.050  -0.000   0.000   0.313   0.000   0.000  -0.030
 -0.000   0.000   0.052   0.000  -0.000   0.000  -0.000  -0.026   0.000   0.000  -0.001  -0.001   0.000   0.320   0.000   0.000
 -0.029  -0.000   0.000  -0.003  -0.000   0.050   0.000  -0.000   0.004   0.000   0.000   0.000   0.000   0.000   0.313  -0.000
 -0.000  -0.002  -0.000  -0.000   0.003   0.000  -0.000   0.000  -0.000  -0.004   0.000  -0.000  -0.030   0.000  -0.000   0.003
  0.000   0.000  -0.003   0.000   0.000  -0.000  -0.000   0.000   0.000  -0.000  -0.000  -0.000   0.000  -0.030  -0.000  -0.000
  0.003  -0.000  -0.000  -0.002   0.000  -0.004  -0.000   0.000  -0.000  -0.000   0.000  -0.000  -0.000   0.000  -0.030   0.000
 total augmentation occupancy for first ion, spin component:           2
  1.828  -0.000  -0.000   0.168   0.000  -0.888   0.000   0.000  -0.147  -0.000   0.000   0.000  -0.000   0.000   0.016   0.000
 -0.000   1.435  -0.000   0.000   0.168   0.000  -0.618   0.000  -0.000  -0.148  -0.000   0.000   0.000  -0.000   0.000  -0.000
 -0.000  -0.000   1.897  -0.000  -0.000   0.000   0.000  -0.951   0.000   0.000  -0.003  -0.003  -0.000  -0.002  -0.000   0.000
  0.168   0.000  -0.000   1.435   0.000  -0.148  -0.000   0.000  -0.618  -0.000  -0.000  -0.000   0.000  -0.000   0.000  -0.000
  0.000   0.168  -0.000   0.000   1.828  -0.000  -0.147   0.000  -0.000  -0.888   0.000   0.000   0.016   0.000   0.000  -0.001
 -0.888   0.000   0.000  -0.148  -0.000   0.276  -0.000  -0.000   0.116   0.000  -0.000  -0.000   0.000   0.000  -0.015  -0.000
  0.000  -0.618   0.000  -0.000  -0.147  -0.000   0.107  -0.000   0.000   0.116   0.000   0.000  -0.009  -0.000  -0.000  -0.000
  0.000   0.000  -0.951   0.000   0.000  -0.000  -0.000   0.337  -0.000  -0.000   0.016   0.006   0.000  -0.022   0.000  -0.000
 -0.147  -0.000   0.000  -0.618  -0.000   0.116   0.000  -0.000   0.107   0.000   0.000   0.000  -0.000   0.000  -0.009  -0.000
 -0.000  -0.148   0.000  -0.000  -0.888   0.000   0.116  -0.000   0.000   0.276  -0.000  -0.000  -0.015   0.000  -0.000   0.001
  0.000  -0.000  -0.003   0.000   0.000  -0.000   0.000   0.016   0.000  -0.000  -0.221   0.074  -0.000  -0.025  -0.000  -0.000
  0.000   0.000  -0.003  -0.000   0.000  -0.000  -0.000   0.006   0.000  -0.000   0.074  -0.013  -0.000  -0.003   0.000  -0.000
 -0.000   0.000  -0.000   0.000   0.016   0.000  -0.009   0.000  -0.000  -0.015  -0.000  -0.000  -0.021   0.000  -0.000   0.004
  0.000  -0.000  -0.002   0.000   0.000   0.000  -0.000  -0.022  -0.000   0.000  -0.025  -0.003   0.000  -0.011   0.000   0.000
  0.016   0.000  -0.000   0.000   0.000  -0.015  -0.000   0.000  -0.009  -0.000  -0.000  -0.000  -0.000  -0.000  -0.021   0.000
  0.000  -0.000   0.000  -0.000  -0.001  -0.000  -0.000  -0.000  -0.000   0.001  -0.000   0.000   0.004  -0.000   0.000  -0.001
 -0.000   0.000   0.002   0.000  -0.000   0.000   0.000  -0.002   0.000   0.000  -0.000   0.000  -0.000   0.004   0.000  -0.000
 -0.001  -0.000   0.000  -0.000  -0.000   0.001  -0.000  -0.000  -0.000   0.000  -0.000   0.000   0.000   0.000   0.004  -0.000


------------------------ aborting loop because EDIFF is reached ----------------------------------------


 


 total charge     
 
# of ion       s       p       d       tot
------------------------------------------
    1        0.491   0.525   7.269   8.285
    2        0.491   0.525   7.270   8.287
    3        0.491   0.527   7.256   8.274
    4        0.491   0.527   7.256   8.274
    5        0.491   0.525   7.269   8.285
    6        0.491   0.525   7.270   8.287
--------------------------------------------------
tot          2.946   3.154  43.590  49.690
 


 magnetization (x)
 
# of ion       s       p       d       tot
------------------------------------------
    1       -0.005  -0.021   1.448   1.422
    2       -0.004  -0.020   1.451   1.426
    3       -0.009  -0.042   1.708   1.656
    4        0.009   0.042  -1.708  -1.656
    5        0.005   0.021  -1.448  -1.422
    6        0.004   0.020  -1.451  -1.426
--------------------------------------------------
tot          0.000   0.000  -0.000  -0.000
 
    CHARGE:  cpu time    0.3138: real time    0.3145
    FORLOC:  cpu time    0.0007: real time    0.0007
    FORNL :  cpu time    1.9179: real time    1.9226
    STRESS:  cpu time    1.8238: real time    1.8282
    FORCOR:  cpu time    0.0177: real time    0.0177
    FORHAR:  cpu time    0.0021: real time    0.0021
    MIXING:  cpu time    0.0016: real time    0.0016
    OFIELD:  cpu time    0.0000: real time    0.0000

  FORCE on cell =-STRESS in cart. coord.  units (eV):
  Direction    XX          YY          ZZ          XY          YZ          ZX
  --------------------------------------------------------------------------------------
  Alpha Z   235.39676   235.39676   235.39676
  Ewald   -1533.46813 -1533.46727 -1505.46612     0.00046     0.00000    -0.00000
  Hartree   260.20058   260.20081   270.65522     0.00017     0.00000    -0.00000
  E(xc)    -277.15133  -277.15150  -277.04615    -0.00000     0.00000    -0.00000
  Local     -47.26677   -47.26632   -79.50285    -0.00061    -0.00000     0.00000
  n-local   -32.51707   -24.99539   -29.26299     1.10366    -0.06680    -0.03638
  augment   933.32800   933.32677   929.94226     0.00002     0.00000    -0.00000
  Kinetic   459.67567   454.86895   455.51880    -0.77371    -0.11423    -0.07177
  Fock        0.00000     0.00000     0.00000     0.00000     0.00000     0.00000
  -------------------------------------------------------------------------------------
  Total      -0.44474    -0.44474     0.23493    -0.00000     0.00000     0.00000
  in kB     -10.99982   -10.99981     5.81042    -0.00000     0.00000     0.00000
  external pressure =       -5.40 kB  Pullay stress =        0.00 kB


 VOLUME and BASIS-vectors are now :
 -----------------------------------------------------------------------------
  energy-cutoff  :      520.00
  volume of cell :       64.78
      direct lattice vectors                 reciprocal lattice vectors
    -1.245908300  2.157976400  0.000000000    -0.401313580  0.231698586  0.000000000
     0.000000000  0.000000000 12.046793400     0.000000000  0.000000000  0.083009641
     1.245908700  2.157976400  0.000000000     0.401313580  0.231698512  0.000000000

  length of vectors
     2.491816533 12.046793400  2.491816733     0.463397048  0.083009641  0.463397011


 FORCES acting on ions
    electron-ion (+dipol)            ewald-force                    non-local-force                 convergence-correction
 -----------------------------------------------------------------------------------------------
   0.948E-04 -.440E-04 0.409E+00   -.752E-04 0.607E-04 0.115E-03   -.390E-17 0.737E-17 0.451E-01   -.152E-09 0.324E-09 0.136E-04
   0.981E-04 -.419E-04 -.410E+00   -.752E-04 0.607E-04 0.120E-03   -.282E-17 0.477E-17 -.451E-01   -.342E-09 0.212E-09 -.133E-04
   -.552E-04 0.727E-04 0.240E-03   0.752E-04 -.607E-04 -.126E-03   0.867E-18 0.217E-17 0.163E-18   -.945E-10 -.239E-09 0.615E-07
   0.950E-04 -.417E-04 0.904E-04   -.752E-04 0.607E-04 0.126E-03   0.434E-18 -.195E-17 0.542E-19   0.287E-10 -.896E-10 -.304E-06
   -.579E-04 0.724E-04 -.410E+00   0.752E-04 -.607E-04 -.115E-03   0.211E-17 -.477E-17 -.451E-01   0.349E-09 -.454E-10 -.135E-04
   -.546E-04 0.745E-04 0.410E+00   0.752E-04 -.607E-04 -.120E-03   0.314E-17 -.542E-17 0.451E-01   0.160E-09 -.157E-09 0.134E-04
 -----------------------------------------------------------------------------------------------
   0.120E-03 0.920E-04 0.906E-04   0.740E-13 0.595E-13 0.490E-13   -.163E-18 0.217E-17 0.139E-16   -.502E-10 0.437E-11 -.184E-10
 
 
 POSITION                                       TOTAL-FORCE (eV/Angst)
 -----------------------------------------------------------------------------------
      0.00000      2.87730      3.01170        -0.000000     -0.000000      0.454767
      0.00000      2.87730      7.02730         0.000000      0.000000     -0.454767
     -0.00000      1.43865      5.01950        -0.000000     -0.000000      0.000000
      0.00000      2.87730     11.04289         0.000000      0.000000      0.000000
     -0.00000      1.43865      1.00390         0.000000     -0.000000     -0.454767
     -0.00000      1.43865      9.03510        -0.000000      0.000000      0.454767
 -----------------------------------------------------------------------------------
    total drift:                                0.000120      0.000092      0.000091


--------------------------------------------------------------------------------------------------------



  FREE ENERGIE OF THE ION-ELECTRON SYSTEM (eV)
  ---------------------------------------------------
  free  energy   TOTEN  =       -41.70009321 eV

  energy  without entropy=      -41.70009321  energy(sigma->0) =      -41.70009321
 


--------------------------------------------------------------------------------------------------------


    POTLOK:  cpu time    0.0239: real time    0.0239


--------------------------------------------------------------------------------------------------------


     LOOP+:  cpu time  148.7619: real time  149.3738
    4ORBIT:  cpu time    0.0000: real time    0.0000
 


 total charge     
 
# of ion       s       p       d       tot
------------------------------------------
    1        0.491   0.525   7.269   8.285
    2        0.491   0.525   7.270   8.287
    3        0.491   0.527   7.256   8.274
    4        0.491   0.527   7.256   8.274
    5        0.491   0.525   7.269   8.285
    6        0.491   0.525   7.270   8.287
--------------------------------------------------
tot          2.946   3.154  43.590  49.690
 


 magnetization (x)
 
# of ion       s       p       d       tot
------------------------------------------
    1       -0.005  -0.021   1.448   1.422
    2       -0.004  -0.020   1.451   1.426
    3       -0.009  -0.042   1.708   1.656
    4        0.009   0.042  -1.708  -1.656
    5        0.005   0.021  -1.448  -1.422
    6        0.004   0.020  -1.451  -1.426
--------------------------------------------------
tot          0.000   0.000  -0.000  -0.000
 
 BZINTS: Fermi energy: 10.341112; 54.000000 electrons
         Band energy: 425.881630;  BLOECHL correction: -0.119788

 total amount of memory used by VASP MPI-rank0    82029. kBytes
=======================================================================

   base      :      30000. kBytes
   nonl-proj :      10306. kBytes
   fftplans  :        666. kBytes
   grid      :       1514. kBytes
   one-center:         62. kBytes
   wavefun   :      39481. kBytes
 
  
  
 General timing and accounting informations for this job:
 ========================================================
  
                  Total CPU time used (sec):      152.646
                            User time (sec):      151.938
                          System time (sec):        0.708
                         Elapsed time (sec):      153.974
  
                   Maximum memory used (kb):      108544.
                   Average memory used (kb):           0.
  
                          Minor page faults:        29714
                          Major page faults:            0
                 Voluntary context switches:         1462
