=========================================
SLURM_JOB_ID = 29816436
SLURM_JOB_NODELIST = lnode32
SLURM_GPUS = 
SLURM_CPUS_ON_NODE = 32
SLURM_JOB_PARTITION = lenovo
SLURM_TASK_PID = 3003459
CUDA_VISIBLE_DEVICES = 
==========================================
 running on   32 total cores
 distrk:  each k-point on   32 cores,    1 groups
 distr:  one band on   32 cores,    1 groups
 using from now: INCAR     
 vasp.5.4.4.18Apr17-6-g9f103f2a35 (build Apr 28 2018 00:24:27) complex          
  
 POSCAR found type information on POSCAR  Mn Bi
 POSCAR found :  2 types and      12 ions
 scaLAPACK will be used

 ----------------------------------------------------------------------------- 
|                                                                             |
|           W    W    AA    RRRRR   N    N  II  N    N   GGGG   !!!           |
|           W    W   A  A   R    R  NN   N  II  NN   N  G    G  !!!           |
|           W    W  A    A  R    R  N N  N  II  N N  N  G       !!!           |
|           W WW W  AAAAAA  RRRRR   N  N N  II  N  N N  G  GGG   !            |
|           WW  WW  A    A  R   R   N   NN  II  N   NN  G    G                |
|           W    W  A    A  R    R  N    N  II  N    N   GGGG   !!!           |
|                                                                             |
|      For optimal performance we recommend to set                            |
|        NCORE= 4 - approx SQRT( number of cores)                             |
|      NCORE specifies how many cores store one orbital (NPAR=cpu/NCORE).     |
|      This setting can  greatly improve the performance of VASP for DFT.     |
|      The default,   NCORE=1            might be grossly inefficient         |
|      on modern multi-core architectures or massively parallel machines.     |
|      Do your own testing !!!!                                               |
|      Unfortunately you need to use the default for GW and RPA calculations. |
|      (for HF NCORE is supported but not extensively tested yet)             |
|                                                                             |
 ----------------------------------------------------------------------------- 

 LDA part: xc-table for Pade appr. of Perdew
 POSCAR, INCAR and KPOINTS ok, starting setup
 FFT: planning ...
 WAVECAR not read
 WARNING: random wavefunctions but no delay for mixing, default for NELMDL
 entering main loop
       N       E                     dE             d eps       ncg     rms          rms(c)
DAV:   1     0.550557542942E+03    0.55056E+03   -0.23739E+04290336   0.140E+03
DAV:   2     0.215231166365E+02   -0.52903E+03   -0.51774E+03290864   0.396E+02
DAV:   3    -0.654199633762E+02   -0.86943E+02   -0.83428E+02478572   0.150E+02
DAV:   4    -0.748056266449E+02   -0.93857E+01   -0.91472E+01508298   0.615E+01
DAV:   5    -0.754380548699E+02   -0.63243E+00   -0.62342E+00482656   0.161E+01    0.237E+01
DAV:   6    -0.856360854163E+02   -0.10198E+02   -0.26797E+02525120   0.155E+02    0.575E+01
DAV:   7    -0.699038581967E+02    0.15732E+02   -0.11920E+02513992   0.825E+01    0.184E+01
DAV:   8    -0.742213735123E+02   -0.43175E+01   -0.87071E+01547264   0.810E+01    0.293E+01
DAV:   9    -0.692417565959E+02    0.49796E+01   -0.70732E+01554540   0.654E+01    0.113E+01
DAV:  10    -0.691215320718E+02    0.12022E+00   -0.10682E+01529242   0.319E+01    0.831E+00
DAV:  11    -0.692609120067E+02   -0.13938E+00   -0.20749E+00511609   0.148E+01    0.576E+00
DAV:  12    -0.693501982788E+02   -0.89286E-01   -0.31328E+00544939   0.194E+01    0.529E+00
DAV:  13    -0.690866820257E+02    0.26352E+00   -0.16408E+00528076   0.146E+01    0.264E+00
DAV:  14    -0.690796082894E+02    0.70737E-02   -0.37989E-01505589   0.597E+00    0.181E+00
DAV:  15    -0.690817238402E+02   -0.21156E-02   -0.87283E-02512337   0.344E+00    0.126E+00
DAV:  16    -0.690877837113E+02   -0.60599E-02   -0.40217E-02527248   0.208E+00    0.816E-01
DAV:  17    -0.690951777452E+02   -0.73940E-02   -0.37452E-02540452   0.209E+00    0.503E-01
DAV:  18    -0.690965193122E+02   -0.13416E-02   -0.11048E-02516297   0.134E+00    0.291E-01
DAV:  19    -0.690963488865E+02    0.17043E-03   -0.40446E-03517759   0.882E-01    0.191E-01
DAV:  20    -0.690963913575E+02   -0.42471E-04   -0.17423E-03518873   0.462E-01    0.114E-01
DAV:  21    -0.690966657304E+02   -0.27437E-03   -0.91198E-04503597   0.309E-01    0.676E-02
DAV:  22    -0.690968061742E+02   -0.14044E-03   -0.37607E-04485614   0.234E-01    0.434E-02
DAV:  23    -0.690968271957E+02   -0.21021E-04   -0.11644E-04468530   0.119E-01    0.349E-02
DAV:  24    -0.690968359269E+02   -0.87312E-05   -0.27591E-05485069   0.391E-02    0.277E-02
DAV:  25    -0.690968543463E+02   -0.18419E-04   -0.19796E-05487272   0.568E-02    0.244E-02
DAV:  26    -0.690968750940E+02   -0.20748E-04   -0.62335E-05510309   0.101E-01    0.186E-02
DAV:  27    -0.690968836297E+02   -0.85357E-05   -0.13869E-05427968   0.265E-02    0.148E-02
DAV:  28    -0.690968868902E+02   -0.32605E-05   -0.44887E-06315840   0.275E-02    0.932E-03
DAV:  29    -0.690968883350E+02   -0.14448E-05   -0.75195E-06385197   0.245E-02    0.482E-03
DAV:  30    -0.690968889100E+02   -0.57504E-06   -0.24472E-06265480   0.198E-02
   1 F= -.69096889E+02 E0= -.69097008E+02  d E =0.355980E-03  mag=    -0.1415
