=========================================
SLURM_JOB_ID = 51706457
SLURM_JOB_NODELIST = lnode13
SLURM_GPUS = 
SLURM_CPUS_ON_NODE = 24
SLURM_JOB_PARTITION = lenovo
SLURM_TASK_PID = 2600499
CUDA_VISIBLE_DEVICES = 
==========================================
 running on   24 total cores
 distrk:  each k-point on   24 cores,    1 groups
 distr:  one band on    4 cores,    6 groups
 using from now: INCAR     
 vasp.5.4.4.18Apr17-6-g9f103f2a35 (build Apr 28 2018 00:24:27) complex          
  
 POSCAR found type information on POSCAR  Fe O 
 POSCAR found :  2 types and      30 ions
 scaLAPACK will be used
 LDA part: xc-table for Pade appr. of Perdew
 POSCAR, INCAR and KPOINTS ok, starting setup
 FFT: planning ...
 WAVECAR not read
 entering main loop
       N       E                     dE             d eps       ncg     rms          rms(c)
DAV:   1     0.460795189893E+04    0.46080E+04   -0.15786E+05 11532   0.218E+03
DAV:   2     0.523807019629E+03   -0.40841E+04   -0.37256E+04 11424   0.605E+02
DAV:   3    -0.241226199779E+03   -0.76503E+03   -0.67198E+03 11880   0.253E+02
DAV:   4    -0.293854964425E+03   -0.52629E+02   -0.51997E+02 12936   0.651E+01
DAV:   5    -0.294450547258E+03   -0.59558E+00   -0.59396E+00 12720   0.782E+00    0.809E+01
DAV:   6    -0.235304089773E+03    0.59146E+02   -0.25321E+02 14808   0.810E+01    0.913E+01
DAV:   7    -0.211604947465E+03    0.23699E+02   -0.11389E+02 12276   0.635E+01    0.437E+01
DAV:   8    -0.218308352742E+03   -0.67034E+01   -0.21302E+01 12132   0.171E+01    0.264E+01
DAV:   9    -0.222544628828E+03   -0.42363E+01   -0.82948E+00 12588   0.171E+01    0.274E+01
DAV:  10    -0.222142701805E+03    0.40193E+00   -0.24842E+00 12588   0.702E+00    0.186E+01
DAV:  11    -0.221569865041E+03    0.57284E+00   -0.23984E-01 14256   0.286E+00    0.121E+01
DAV:  12    -0.221370003026E+03    0.19986E+00   -0.19364E-01 15168   0.238E+00    0.847E+00
DAV:  13    -0.221365189262E+03    0.48138E-02   -0.11468E-01 13908   0.230E+00    0.462E+00
DAV:  14    -0.221411207832E+03   -0.46019E-01   -0.15968E-01 15060   0.200E+00    0.175E+00
DAV:  15    -0.221430152220E+03   -0.18944E-01   -0.63492E-02 12396   0.678E-01    0.142E+00
DAV:  16    -0.221424817943E+03    0.53343E-02   -0.96895E-03 14220   0.730E-01    0.350E-01
DAV:  17    -0.221425525609E+03   -0.70767E-03   -0.46985E-03 12300   0.175E-01    0.185E-01
DAV:  18    -0.221425768854E+03   -0.24324E-03   -0.20985E-04 14148   0.767E-02    0.919E-02
DAV:  19    -0.221425828827E+03   -0.59973E-04   -0.93716E-05 13800   0.445E-02    0.201E-02
DAV:  20    -0.221425840501E+03   -0.11674E-04   -0.27236E-05 12780   0.169E-02    0.911E-03
DAV:  21    -0.221425841816E+03   -0.13150E-05   -0.22756E-06 12360   0.671E-03    0.110E-02
DAV:  22    -0.221425842999E+03   -0.11834E-05   -0.10937E-06 10776   0.507E-03    0.590E-03
DAV:  23    -0.221425841765E+03    0.12338E-05   -0.27233E-07  9132   0.287E-03    0.135E-03
DAV:  24    -0.221425840818E+03    0.94720E-06   -0.86117E-08  6624   0.859E-04    0.480E-04
DAV:  25    -0.221425840884E+03   -0.66160E-07   -0.12841E-08  6180   0.333E-04
   1 F= -.22142584E+03 E0= -.22142584E+03  d E =0.000000E+00  mag=    42.3260
