 vasp.5.4.4.18Apr17-6-g9f103f2a35 (build Apr 28 2018 00:24:27) complex          
  
 executed on             LinuxIFC date 2021.09.06  03:44:56
 running on   24 total cores
 distrk:  each k-point on   24 cores,    1 groups
 distr:  one band on NCORES_PER_BAND=   4 cores,    6 groups


--------------------------------------------------------------------------------------------------------


 INCAR:
 POTCAR:    PAW_PBE Fe_pv 02Aug2007               
 POTCAR:    PAW_PBE O 08Apr2002                   
 POTCAR:    PAW_PBE Fe_pv 02Aug2007               
   VRHFIN =Fe:  3pd7s1                                                          
   LEXCH  = PE                                                                  
   EATOM  =  2457.4239 eV,  180.6156 Ry                                         
                                                                                
   TITEL  = PAW_PBE Fe_pv 02Aug2007                                             
   LULTRA =        F    use ultrasoft PP ?                                      
   IUNSCR =        1    unscreen: 0-lin 1-nonlin 2-no                           
   RPACOR =    1.750    partial core radius                                     
   POMASS =   55.847; ZVAL   =   14.000    mass and valenz                      
   RCORE  =    2.200    outmost cutoff radius                                   
   RWIGS  =    2.200; RWIGS  =    1.164    wigner-seitz radius (au A)           
   ENMAX  =  293.238; ENMIN  =  219.928 eV                                      
   ICORE  =        3    local potential                                         
   LCOR   =        T    correct aug charges                                     
   LPAW   =        T    paw PP                                                  
   EAUG   =  578.342                                                            
   DEXC   =    0.000                                                            
   RMAX   =    2.249    core radius for proj-oper                               
   RAUG   =    1.300    factor for augmentation sphere                          
   RDEP   =    2.296    radius for radial grids                                 
   RDEPT  =    1.766    core radius for aug-charge                              
                                                                                
   Atomic configuration                                                         
    8 entries                                                                   
     n  l   j            E        occ.                                          
     1  0  0.50     -6993.8440   2.0000                                         
     2  0  0.50      -814.6047   2.0000                                         
     2  1  1.50      -693.3689   6.0000                                         
     3  0  0.50       -89.4732   2.0000                                         
     3  1  1.50       -55.6373   6.0000                                         
     3  2  2.50        -3.8151   7.0000                                         
     4  0  0.50        -4.2551   1.0000                                         
     4  3  2.50        -1.3606   0.0000                                         
   Description                                                                  
     l       E           TYP  RCUT    TYP  RCUT                                 
     1    -55.6372668     23  2.000                                             
     1     -5.4423304     23  2.000                                             
     2     -3.8151096     23  2.200                                             
     2     -5.1756922     23  2.200                                             
     0     -4.2550951     23  2.200                                             
     0     27.2116520     23  2.200                                             
     3     -1.3605826     23  2.200                                             
  local pseudopotential read in
  partial core-charges read in
  partial kinetic energy density read in
  atomic valenz-charges read in
  non local Contribution for L=           1  read in
    real space projection operators read in
  non local Contribution for L=           1  read in
    real space projection operators read in
  non local Contribution for L=           2  read in
    real space projection operators read in
  non local Contribution for L=           2  read in
    real space projection operators read in
  non local Contribution for L=           0  read in
    real space projection operators read in
  non local Contribution for L=           0  read in
    real space projection operators read in
    PAW grid and wavefunctions read in
 
   number of l-projection  operators is LMAX  =           6
   number of lm-projection operators is LMMAX =          18
 
 POTCAR:    PAW_PBE O 08Apr2002                   
   VRHFIN =O: s2p4                                                              
   LEXCH  = PE                                                                  
   EATOM  =   432.3788 eV,   31.7789 Ry                                         
                                                                                
   TITEL  = PAW_PBE O 08Apr2002                                                 
   LULTRA =        F    use ultrasoft PP ?                                      
   IUNSCR =        1    unscreen: 0-lin 1-nonlin 2-no                           
   RPACOR =    1.200    partial core radius                                     
   POMASS =   16.000; ZVAL   =    6.000    mass and valenz                      
   RCORE  =    1.520    outmost cutoff radius                                   
   RWIGS  =    1.550; RWIGS  =    0.820    wigner-seitz radius (au A)           
   ENMAX  =  400.000; ENMIN  =  300.000 eV                                      
   ICORE  =        2    local potential                                         
   LCOR   =        T    correct aug charges                                     
   LPAW   =        T    paw PP                                                  
   EAUG   =  605.392                                                            
   DEXC   =    0.000                                                            
   RMAX   =    1.553    core radius for proj-oper                               
   RAUG   =    1.300    factor for augmentation sphere                          
   RDEP   =    1.550    radius for radial grids                                 
   RDEPT  =    1.329    core radius for aug-charge                              
                                                                                
   Atomic configuration                                                         
    4 entries                                                                   
     n  l   j            E        occ.                                          
     1  0  0.50      -514.6923   2.0000                                         
     2  0  0.50       -23.9615   2.0000                                         
     2  1  0.50        -9.0305   4.0000                                         
     3  2  1.50        -9.5241   0.0000                                         
   Description                                                                  
     l       E           TYP  RCUT    TYP  RCUT                                 
     0    -23.9615318     23  1.200                                             
     0     -9.5240782     23  1.200                                             
     1     -9.0304911     23  1.520                                             
     1      8.1634956     23  1.520                                             
     2     -9.5240782      7  1.500                                             
  local pseudopotential read in
  partial core-charges read in
  partial kinetic energy density read in
  kinetic energy density of atom read in
  atomic valenz-charges read in
  non local Contribution for L=           0  read in
    real space projection operators read in
  non local Contribution for L=           0  read in
    real space projection operators read in
  non local Contribution for L=           1  read in
    real space projection operators read in
  non local Contribution for L=           1  read in
    real space projection operators read in
    PAW grid and wavefunctions read in
 
   number of l-projection  operators is LMAX  =           4
   number of lm-projection operators is LMMAX =           8
 
 Optimization of the real space projectors (new method)

 maximal supplied QI-value         = 17.01
 optimisation between [QCUT,QGAM] = [ 13.10, 26.19] = [ 48.02,192.10] Ry 
 Optimized for a Real-space Cutoff    1.40 Angstroem

   l    n(q)    QCUT    max X(q) W(low)/X(q) W(high)/X(q)  e(spline) 
   1     11    13.096     4.267    0.10E-03    0.42E-04    0.21E-06
   1     11    13.096     5.750    0.15E-03    0.59E-04    0.32E-06
   2     10    13.096    53.656    0.43E-04    0.12E-04    0.26E-06
   2     10    13.096    49.521    0.45E-04    0.12E-04    0.27E-06
   0     11    13.096    31.246    0.46E-04    0.28E-05    0.27E-06
   0     11    13.096    12.201    0.31E-04    0.21E-05    0.22E-06
 Optimization of the real space projectors (new method)

 maximal supplied QI-value         = 24.76
 optimisation between [QCUT,QGAM] = [ 13.12, 26.24] = [ 48.21,192.82] Ry 
 Optimized for a Real-space Cutoff    1.14 Angstroem

   l    n(q)    QCUT    max X(q) W(low)/X(q) W(high)/X(q)  e(spline) 
   0      9    13.120    20.381    0.20E-03    0.13E-03    0.23E-06
   0      9    13.120    15.268    0.22E-03    0.14E-03    0.25E-06
   1      8    13.120     5.964    0.13E-03    0.16E-03    0.22E-06
   1      8    13.120     5.382    0.11E-03    0.14E-03    0.19E-06
  PAW_PBE Fe_pv 02Aug2007               :
 energy of atom  1       EATOM=-2457.4239
 kinetic energy error for atom=    0.0037 (will be added to EATOM!!)
  PAW_PBE O 08Apr2002                   :
 energy of atom  2       EATOM= -432.3788
 kinetic energy error for atom=    0.0121 (will be added to EATOM!!)
 
 
 POSCAR: Fe12 O18                                
  positions in direct lattice
  No initial velocities read in
 exchange correlation table for  LEXCH =        8
   RHO(1)=    0.500       N(1)  =     2000
   RHO(2)=  100.500       N(2)  =     4000
 


--------------------------------------------------------------------------------------------------------


 ion  position               nearest neighbor table
   1  0.000  0.000  0.355-  17 1.94  23 1.94  28 1.94  25 2.12  19 2.12  13 2.12
   2  0.000  0.000  0.645-  16 1.94  22 1.94  29 1.94  26 2.12  20 2.12  14 2.12
   3  0.333  0.667  0.022-  30 1.94  24 1.94  18 1.94  27 2.12  21 2.12  15 2.12
   4  0.667  0.333  0.689-  14 1.94  20 1.94  26 1.94  22 2.12  29 2.12  16 2.12
   5  0.333  0.667  0.311-  13 1.94  19 1.94  25 1.94  23 2.12  28 2.12  17 2.12
   6  0.667  0.333  0.978-  27 1.94  21 1.94  15 1.94  30 2.12  24 2.12  18 2.12
   7  0.000  0.000  0.145-  24 1.94  18 1.94  30 1.94  25 2.12  19 2.12  13 2.12
   8  0.000  0.000  0.855-  21 1.94  15 1.94  27 1.94  26 2.12  20 2.12  14 2.12
   9  0.333  0.667  0.811-  20 1.94  14 1.94  26 1.94  27 2.12  21 2.12  15 2.12
  10  0.333  0.667  0.522-  29 1.94  16 1.94  22 1.94  23 2.12  28 2.12  17 2.12
  11  0.667  0.333  0.478-  28 1.94  17 1.94  23 1.94  22 2.12  29 2.12  16 2.12
  12  0.667  0.333  0.189-  19 1.94  13 1.94  25 1.94  30 2.12  24 2.12  18 2.12
  13  0.306  0.000  0.250-   5 1.94  12 1.94   7 2.12   1 2.12
  14  0.694  0.000  0.750-   4 1.94   9 1.94   8 2.12   2 2.12
  15  0.640  0.667  0.917-   6 1.94   8 1.94   9 2.12   3 2.12
  16  0.973  0.333  0.583-  10 1.94   2 1.94   4 2.12  11 2.12
  17  0.027  0.667  0.417-  11 1.94   1 1.94   5 2.12  10 2.12
  18  0.360  0.333  0.083-   3 1.94   7 1.94  12 2.12   6 2.12
  19  0.000  0.306  0.250-  12 1.94   5 1.94   7 2.12   1 2.12
  20  0.000  0.694  0.750-   9 1.94   4 1.94   8 2.12   2 2.12
  21  0.333  0.973  0.917-   6 1.94   8 1.94   9 2.12   3 2.12
  22  0.667  0.640  0.583-  10 1.94   2 1.94   4 2.12  11 2.12
  23  0.333  0.360  0.417-  11 1.94   1 1.94   5 2.12  10 2.12
  24  0.667  0.027  0.083-   3 1.94   7 1.94  12 2.12   6 2.12
  25  0.694  0.694  0.250-  12 1.94   5 1.94   7 2.12   1 2.12
  26  0.306  0.306  0.750-   9 1.94   4 1.94   8 2.12   2 2.12
  27  0.027  0.360  0.917-   6 1.94   8 1.94   9 2.12   3 2.12
  28  0.640  0.973  0.417-  11 1.94   1 1.94   5 2.12  10 2.12
  29  0.360  0.027  0.583-  10 1.94   2 1.94   4 2.12  11 2.12
  30  0.973  0.640  0.083-   3 1.94   7 1.94  12 2.12   6 2.12
 
  LATTYP: Found a hexagonal cell.
 ALAT       =     5.0350995578
 C/A-ratio  =     2.7324385232
  
  Lattice vectors:
  
 A1 = (   5.0351000000,   0.0000000000,   0.0000000000)
 A2 = (  -2.5175500000,   4.3605240000,   0.0000000000)
 A3 = (   0.0000000000,   0.0000000000,  13.7581000000)


Analysis of symmetry for initial positions (statically):
=====================================================================
 Subroutine PRICEL returns following result:
 
  LATTYP: Found a trigonal (rhomboedric) cell.
 ALAT       =     5.4297801492
 COS(alpha) =     0.5700456062
  
  Lattice vectors:
  
 A1 = (  -2.5175449649,  -1.4535109070,  -4.5860425054)
 A2 = (  -0.0000025175,   2.9070174535,  -4.5860287473)
 A3 = (   2.5175474825,  -1.4535065465,  -4.5860287473)
 
   3 primitive cells build up your supercell.
 

 Routine SETGRP: Setting up the symmetry group for a 
 hexagonal supercell.


 Subroutine GETGRP returns: Found 12 space group operations
 (whereof  6 operations were pure point group operations)
 out of a pool of 24 trial point group operations.


The static configuration has the point symmetry S_6 .
 The point group associated with its full space group is D_3d.


Analysis of symmetry for dynamics (positions and initial velocities):
=====================================================================
 Subroutine PRICEL returns following result:
 
  LATTYP: Found a trigonal (rhomboedric) cell.
 ALAT       =     5.4297801492
 COS(alpha) =     0.5700456062
  
  Lattice vectors:
  
 A1 = (  -2.5175449649,  -1.4535109070,  -4.5860425054)
 A2 = (  -0.0000025175,   2.9070174535,  -4.5860287473)
 A3 = (   2.5175474825,  -1.4535065465,  -4.5860287473)
 
   3 primitive cells build up your supercell.
 

 Routine SETGRP: Setting up the symmetry group for a 
 hexagonal supercell.


 Subroutine GETGRP returns: Found 12 space group operations
 (whereof  6 operations were pure point group operations)
 out of a pool of 24 trial point group operations.


The dynamic configuration has the point symmetry S_6 .
 The point group associated with its full space group is D_3d.


Analysis of structural, dynamic, and magnetic symmetry:
=====================================================================
 Subroutine PRICEL returns following result:
 
  LATTYP: Found a trigonal (rhomboedric) cell.
 ALAT       =     5.4297801492
 COS(alpha) =     0.5700456062
  
  Lattice vectors:
  
 A1 = (  -2.5175449649,  -1.4535109070,  -4.5860425054)
 A2 = (  -0.0000025175,   2.9070174535,  -4.5860287473)
 A3 = (   2.5175474825,  -1.4535065465,  -4.5860287473)
 
   3 primitive cells build up your supercell.
 

 Routine SETGRP: Setting up the symmetry group for a 
 hexagonal supercell.


 Subroutine GETGRP returns: Found 12 space group operations
 (whereof  6 operations were pure point group operations)
 out of a pool of 24 trial point group operations.


The magnetic configuration has the point symmetry S_6 .
 The point group associated with its full space group is D_3d.


 Subroutine INISYM returns: Found 12 space group operations
 (whereof  6 operations are pure point group operations),
 and found     3 'primitive' translations

 
 
 KPOINTS: pymatgen with grid density = 2464 / numb

Automatic generation of k-mesh.
Space group operators:
 irot       det(A)        alpha          n_x          n_y          n_z        tau_x        tau_y        tau_z
    1     1.000000     0.000000     1.000000     0.000000     0.000000     0.000000     0.000000     0.000000
    2    -1.000000     0.000000     1.000000     0.000000     0.000000     0.000000     0.000000     0.000000
    3     1.000000   120.000000     0.000000     0.000000    -1.000000     0.000000     0.000000     0.000000
    4    -1.000000   120.000000     0.000000     0.000000    -1.000000     0.000000     0.000000     0.000000
    5     1.000000   120.000000     0.000000     0.000000     1.000000     0.000000     0.000000     0.000000
    6    -1.000000   120.000000     0.000000     0.000000     1.000000     0.000000     0.000000     0.000000
    7     1.000000   180.000000     1.000000     0.000000     0.000000     0.000001    -0.000000    -0.500000
    8    -1.000000   180.000000     1.000000     0.000000     0.000000     0.000001    -0.000000    -0.500000
    9     1.000000   180.000000     0.500000    -0.866025     0.000000     0.000000     0.000000    -0.500000
   10    -1.000000   180.000000     0.500000    -0.866025     0.000000     0.000000     0.000000    -0.500000
   11     1.000000   180.000000    -0.500000    -0.866025     0.000000     0.000000     0.000000    -0.500000
   12    -1.000000   180.000000    -0.500000    -0.866025     0.000000     0.000000     0.000000    -0.500000
 
 Subroutine IBZKPT returns following result:
 ===========================================
 
 Found     14 irreducible k-points:
 
 Following reciprocal coordinates:
            Coordinates               Weight
  0.000000  0.000000  0.000000      1.000000
  0.166667  0.000000  0.000000      6.000000
  0.333333  0.000000  0.000000      6.000000
  0.500000  0.000000  0.000000      3.000000
  0.166667  0.166667  0.000000      6.000000
  0.333333  0.166667  0.000000     12.000000
  0.333333  0.333333  0.000000      2.000000
  0.000000  0.000000  0.500000      1.000000
  0.166667  0.000000  0.500000      6.000000
  0.333333  0.000000  0.500000      6.000000
  0.500000  0.000000  0.500000      3.000000
  0.166667  0.166667  0.500000      6.000000
  0.333333  0.166667  0.500000     12.000000
  0.333333  0.333333  0.500000      2.000000
 
 Following cartesian coordinates:
            Coordinates               Weight
  0.000000  0.000000  0.000000      1.000000
  0.033101  0.019111  0.000000      6.000000
  0.066202  0.038222  0.000000      6.000000
  0.099303  0.057333  0.000000      3.000000
  0.033101  0.057333  0.000000      6.000000
  0.066202  0.076443  0.000000     12.000000
  0.066202  0.114665  0.000000      2.000000
  0.000000  0.000000  0.036342      1.000000
  0.033101  0.019111  0.036342      6.000000
  0.066202  0.038222  0.036342      6.000000
  0.099303  0.057333  0.036342      3.000000
  0.033101  0.057333  0.036342      6.000000
  0.066202  0.076443  0.036342     12.000000
  0.066202  0.114665  0.036342      2.000000
 
 TETIRR: Found     71 inequivalent tetrahedra from      432


--------------------------------------------------------------------------------------------------------




 Dimension of arrays:
   k-points           NKPTS =     14   k-points in BZ     NKDIM =     14   number of bands    NBANDS=    204
   number of dos      NEDOS =    301   number of ions     NIONS =     30
   non local maximal  LDIM  =      6   non local SUM 2l+1 LMDIM =     18
   total plane-waves  NPLWV = 211680
   max r-space proj   IRMAX =   8144   max aug-charges    IRDMAX=  20952
   dimension x,y,z NGX =    42 NGY =   42 NGZ =  120
   dimension x,y,z NGXF=    84 NGYF=   84 NGZF=  240
   support grid    NGXF=    84 NGYF=   84 NGZF=  240
   ions per type =              12  18
   NGX,Y,Z   is equivalent  to a cutoff of  13.87, 13.87, 14.50 a.u.
   NGXF,Y,Z  is equivalent  to a cutoff of  27.73, 27.73, 29.00 a.u.

 SYSTEM =  unknown system                          
 POSCAR =  Fe12 O18                                

 Startparameter for this run:
   NWRITE =      2    write-flag & timer
   PREC   = accura    normal or accurate (medium, high low for compatibility)
   ISTART =      0    job   : 0-new  1-cont  2-samecut
   ICHARG =      2    charge: 1-file 2-atom 10-const
   ISPIN  =      2    spin polarized calculation?
   LNONCOLLINEAR =      F non collinear calculations
   LSORBIT =      F    spin-orbit coupling
   INIWAV =      1    electr: 0-lowe 1-rand  2-diag
   LASPH  =      F    aspherical Exc in radial PAW
   METAGGA=      F    non-selfconsistent MetaGGA calc.

 Electronic Relaxation 1
   ENCUT  =  660.0 eV  48.51 Ry    6.96 a.u.  10.55 10.55 28.82*2*pi/ulx,y,z
   ENINI  =  660.0     initial cutoff
   ENAUG  =  605.4 eV  augmentation charge cutoff
   NELM   =    100;   NELMIN=  2; NELMDL= -5     # of ELM steps 
   EDIFF  = 0.1E-06   stopping-criterion for ELM
   LREAL  =      T    real-space projection
   NLSPLINE    = F    spline interpolate recip. space projectors
   LCOMPAT=      F    compatible to vasp.4.4
   GGA_COMPAT  = T    GGA compatible to vasp.4.4-vasp.4.6
   LMAXPAW     = -100 max onsite density
   LMAXMIX     =    2 max onsite mixed and CHGCAR
   VOSKOWN=      0    Vosko Wilk Nusair interpolation
   ROPT   =   -0.00025  -0.00025
 Ionic relaxation
   EDIFFG = 0.1E-05   stopping-criterion for IOM
   NSW    =      0    number of steps for IOM
   NBLOCK =      1;   KBLOCK =      1    inner block; outer block 
   IBRION =     -1    ionic relax: 0-MD 1-quasi-New 2-CG
   NFREE  =      0    steps in history (QN), initial steepest desc. (CG)
   ISIF   =      3    stress and relaxation
   IWAVPR =     10    prediction:  0-non 1-charg 2-wave 3-comb
   ISYM   =      2    0-nonsym 1-usesym 2-fastsym
   LCORR  =      T    Harris-Foulkes like correction to forces

   POTIM  = 0.5000    time-step for ionic-motion
   TEIN   =    0.0    initial temperature
   TEBEG  =    0.0;   TEEND  =   0.0 temperature during run
   SMASS  =  -3.00    Nose mass-parameter (am)
   estimated Nose-frequenzy (Omega)   =  0.10E-29 period in steps =****** mass=  -0.579E-27a.u.
   SCALEE = 1.0000    scale energy and forces
   NPACO  =    256;   APACO  = 16.0  distance and # of slots for P.C.
   PSTRESS=    0.0 pullay stress

  Mass of Ions in am
   POMASS =  55.85 16.00
  Ionic Valenz
   ZVAL   =  14.00  6.00
  Atomic Wigner-Seitz radii
   RWIGS  =  -1.00 -1.00
  virtual crystal weights 
   VCA    =   1.00  1.00
   NELECT =     276.0000    total number of electrons
   NUPDOWN=      -1.0000    fix difference up-down

 DOS related values:
   EMIN   =  10.00;   EMAX   =-10.00  energy-range for DOS
   EFERMI =   0.00
   ISMEAR =    -5;   SIGMA  =   0.05  broadening in eV -4-tet -1-fermi 0-gaus

 Electronic relaxation 2 (details)
   IALGO  =     38    algorithm
   LDIAG  =      T    sub-space diagonalisation (order eigenvalues)
   LSUBROT=      F    optimize rotation matrix (better conditioning)
   TURBO    =      0    0=normal 1=particle mesh
   IRESTART =      0    0=no restart 2=restart with 2 vectors
   NREBOOT  =      0    no. of reboots
   NMIN     =      0    reboot dimension
   EREF     =   0.00    reference energy to select bands
   IMIX   =      4    mixing-type and parameters
     AMIX     =   0.40;   BMIX     =  1.00
     AMIX_MAG =   1.60;   BMIX_MAG =  1.00
     AMIN     =   0.10
     WC   =   100.;   INIMIX=   1;  MIXPRE=   1;  MAXMIX= -45

 Intra band minimization:
   WEIMIN = 0.0000     energy-eigenvalue tresh-hold
   EBREAK =  0.12E-09  absolut break condition
   DEPER  =   0.30     relativ break condition  

   TIME   =   0.40     timestep for ELM

  volume/ion in A,a.u.               =      10.07        67.95
  Fermi-wavevector in a.u.,A,eV,Ry     =   1.588581  3.001983 34.335534  2.523591
  Thomas-Fermi vector in A             =   2.687563
 
 Write flags
   LWAVE        =      F    write WAVECAR
   LDOWNSAMPLE  =      F    k-point downsampling of WAVECAR
   LCHARG       =      F    write CHGCAR
   LVTOT        =      F    write LOCPOT, total local potential
   LVHAR        =      F    write LOCPOT, Hartree potential only
   LELF         =      F    write electronic localiz. function (ELF)
   LORBIT       =     11    0 simple, 1 ext, 2 COOP (PROOUT), +10 PAW based schemes


 Dipole corrections
   LMONO  =      F    monopole corrections only (constant potential shift)
   LDIPOL =      F    correct potential (dipole corrections)
   IDIPOL =      0    1-x, 2-y, 3-z, 4-all directions 
   EPSILON=  1.0000000 bulk dielectric constant

 Exchange correlation treatment:
   GGA     =    --    GGA type
   LEXCH   =     8    internal setting for exchange type
   VOSKOWN=      0    Vosko Wilk Nusair interpolation
   LHFCALC =     F    Hartree Fock is set to
   LHFONE  =     F    Hartree Fock one center treatment
   AEXX    =    0.0000 exact exchange contribution

 Linear response parameters
   LEPSILON=     F    determine dielectric tensor
   LRPA    =     F    only Hartree local field effects (RPA)
   LNABLA  =     F    use nabla operator in PAW spheres
   LVEL    =     F    velocity operator in full k-point grid
   LINTERFAST=   F  fast interpolation
   KINTER  =     0    interpolate to denser k-point grid
   CSHIFT  =0.1000    complex shift for real part using Kramers Kronig
   OMEGAMAX=  -1.0    maximum frequency
   DEG_THRESHOLD= 0.2000000E-02 threshold for treating states as degnerate
   RTIME   =   -0.100 relaxation time in fs
  (WPLASMAI=    0.000 imaginary part of plasma frequency in eV, 0.658/RTIME)
   DFIELD  = 0.0000000 0.0000000 0.0000000 field for delta impulse in time
 
 Orbital magnetization related:
   ORBITALMAG=     F  switch on orbital magnetization
   LCHIMAG   =     F  perturbation theory with respect to B field
   DQ        =  0.001000  dq finite difference perturbation B field
   LLRAUG    =     F  two centre corrections for induced B field



--------------------------------------------------------------------------------------------------------


 Static calculation
 charge density and potential will be updated during run
 spin polarized calculation
 Variant of blocked Davidson
 Davidson routine will perform the subspace rotation
 perform sub-space diagonalisation
    after iterative eigenvector-optimisation
 modified Broyden-mixing scheme, WC =      100.0
 initial mixing is a Kerker type mixing with AMIX =  0.4000 and BMIX =      1.0000
 Hartree-type preconditioning will be used
 using additional bands           66
 real space projection scheme for non local part
 use partial core corrections
 calculate Harris-corrections to forces 
   (improved forces if not selfconsistent)
 use gradient corrections 
 use of overlap-Matrix (Vanderbilt PP)
 Fermi weights with tetrahedron method with Bloechl corrections


--------------------------------------------------------------------------------------------------------


  energy-cutoff  :      660.00
  volume of cell :      302.07
      direct lattice vectors                 reciprocal lattice vectors
     5.035100000  0.000000000  0.000000000     0.198605787  0.114665118  0.000000000
    -2.517550000  4.360524000  0.000000000     0.000000000  0.229330236  0.000000000
     0.000000000  0.000000000 13.758100000     0.000000000  0.000000000  0.072684455

  length of vectors
     5.035100000  5.035099558 13.758100000     0.229330216  0.229330236  0.072684455


 
 k-points in units of 2pi/SCALE and weight: pymatgen with grid density = 2464 / numb
   0.00000000  0.00000000  0.00000000       0.014
   0.03310096  0.01911085  0.00000000       0.083
   0.06620193  0.03822171  0.00000000       0.083
   0.09930289  0.05733256  0.00000000       0.042
   0.03310096  0.05733256  0.00000000       0.083
   0.06620193  0.07644341  0.00000000       0.167
   0.06620193  0.11466512  0.00000000       0.028
   0.00000000  0.00000000  0.03634223       0.014
   0.03310096  0.01911085  0.03634223       0.083
   0.06620193  0.03822171  0.03634223       0.083
   0.09930289  0.05733256  0.03634223       0.042
   0.03310096  0.05733256  0.03634223       0.083
   0.06620193  0.07644341  0.03634223       0.167
   0.06620193  0.11466512  0.03634223       0.028
 
 k-points in reciprocal lattice and weights: pymatgen with grid density = 2464 / numb
   0.00000000  0.00000000  0.00000000       0.014
   0.16666667  0.00000000  0.00000000       0.083
   0.33333333  0.00000000  0.00000000       0.083
   0.50000000  0.00000000  0.00000000       0.042
   0.16666667  0.16666667  0.00000000       0.083
   0.33333333  0.16666667  0.00000000       0.167
   0.33333333  0.33333333  0.00000000       0.028
   0.00000000  0.00000000  0.50000000       0.014
   0.16666667  0.00000000  0.50000000       0.083
   0.33333333  0.00000000  0.50000000       0.083
   0.50000000  0.00000000  0.50000000       0.042
   0.16666667  0.16666667  0.50000000       0.083
   0.33333333  0.16666667  0.50000000       0.167
   0.33333333  0.33333333  0.50000000       0.028
 
 position of ions in fractional coordinates (direct lattice) 
   0.00000000  0.00000000  0.35532000
   0.00000000  0.00000000  0.64468000
   0.33333300  0.66666700  0.02198700
   0.66666700  0.33333300  0.68865300
   0.33333300  0.66666700  0.31134700
   0.66666700  0.33333300  0.97801300
   0.00000000  0.00000000  0.14468000
   0.00000000  0.00000000  0.85532000
   0.33333300  0.66666700  0.81134700
   0.33333300  0.66666700  0.52198700
   0.66666700  0.33333300  0.47801300
   0.66666700  0.33333300  0.18865300
   0.30618000  0.00000000  0.25000000
   0.69382000  0.00000000  0.75000000
   0.63951300  0.66666700  0.91666700
   0.97284700  0.33333300  0.58333300
   0.02715300  0.66666700  0.41666700
   0.36048700  0.33333300  0.08333300
   0.00000000  0.30618000  0.25000000
   0.00000000  0.69382000  0.75000000
   0.33333300  0.97284700  0.91666700
   0.66666700  0.63951300  0.58333300
   0.33333300  0.36048700  0.41666700
   0.66666700  0.02715300  0.08333300
   0.69382000  0.69382000  0.25000000
   0.30618000  0.30618000  0.75000000
   0.02715300  0.36048700  0.91666700
   0.63951300  0.97284700  0.41666700
   0.36048700  0.02715300  0.58333300
   0.97284700  0.63951300  0.08333300
 
 position of ions in cartesian coordinates  (Angst):
   0.00000000  0.00000000  4.88852809
   0.00000000  0.00000000  8.86957191
  -0.00000252  2.90701745  0.30249934
   2.51755252  1.45350655  9.47455684
  -0.00000252  2.90701745  4.28354316
   2.51755252  1.45350655 13.45560066
   0.00000000  0.00000000  1.99052191
   0.00000000  0.00000000 11.76757809
  -0.00000252  2.90701745 11.16259316
  -0.00000252  2.90701745  7.18154934
   2.51755252  1.45350655  6.57655066
   2.51755252  1.45350655  2.59550684
   1.54164692  0.00000000  3.43952500
   3.49345308  0.00000000 10.31857500
   1.54164440  2.90701745 12.61159625
   4.05919944  1.45350655  8.02555375
  -1.54164944  2.90701745  5.73254625
   0.97590560  1.45350655  1.14650375
  -0.77082346  1.33510524  3.43952500
  -1.74672654  3.02541876 10.31857500
  -0.77082598  4.24212269 12.61159625
   1.74672906  2.78861178  8.02555375
   0.77082094  1.57191222  5.73254625
   3.28837598  0.11840131  1.14650375
   1.74672654  3.02541876  3.43952500
   0.77082346  1.33510524 10.31857500
  -0.77082598  1.57191222 12.61159625
   0.77082094  4.24212269  5.73254625
   1.74672906  0.11840131  8.02555375
   3.28837598  2.78861178  1.14650375
 


--------------------------------------------------------------------------------------------------------


 k-point  1 :   0.0000 0.0000 0.0000  plane waves:   11637
 k-point  2 :   0.1667 0.0000 0.0000  plane waves:   11680
 k-point  3 :   0.3333 0.0000 0.0000  plane waves:   11638
 k-point  4 :   0.5000 0.0000 0.0000  plane waves:   11636
 k-point  5 :   0.1667 0.1667 0.0000  plane waves:   11647
 k-point  6 :   0.3333 0.1667 0.0000  plane waves:   11602
 k-point  7 :   0.3333 0.3333 0.0000  plane waves:   11646
 k-point  8 :   0.0000 0.0000 0.5000  plane waves:   11662
 k-point  9 :   0.1667 0.0000 0.5000  plane waves:   11660
 k-point 10 :   0.3333 0.0000 0.5000  plane waves:   11638
 k-point 11 :   0.5000 0.0000 0.5000  plane waves:   11616
 k-point 12 :   0.1667 0.1667 0.5000  plane waves:   11638
 k-point 13 :   0.3333 0.1667 0.5000  plane waves:   11608
 k-point 14 :   0.3333 0.3333 0.5000  plane waves:   11640

 maximum and minimum number of plane-waves per node :      2938     2883

 maximum number of plane-waves:     11680
 maximum index in each direction: 
   IXMAX=   10   IYMAX=   10   IZMAX=   28
   IXMIN=  -11   IYMIN=  -10   IZMIN=  -29


 real space projection operators:
  total allocation   :      18060.75 KBytes
  max/ min on nodes  :       4692.72       4336.34


 parallel 3D FFT for wavefunctions:
    minimum data exchange during FFTs selected (reduces bandwidth)
 parallel 3D FFT for charge:
    minimum data exchange during FFTs selected (reduces bandwidth)


 total amount of memory used by VASP MPI-rank0   101271. kBytes
=======================================================================

   base      :      30000. kBytes
   nonlr-proj:       9931. kBytes
   fftplans  :       4270. kBytes
   grid      :      10944. kBytes
   one-center:        248. kBytes
   wavefun   :      45878. kBytes
 
     INWAV:  cpu time    0.0000: real time    0.0001
 Broyden mixing: mesh for mixing (old mesh)
   NGX = 21   NGY = 21   NGZ = 57
  (NGX  = 84   NGY  = 84   NGZ  =240)
  gives a total of  25137 points

 initial charge density was supplied:
 charge density of overlapping atoms calculated
 number of electron     276.0000000 magnetization      70.8000000
 keeping initial charge density in first step


--------------------------------------------------------------------------------------------------------


 Maximum index for non-local projection operator         2197
 Maximum index for augmentation-charges         1296 (set IRDMAX)


--------------------------------------------------------------------------------------------------------


 First call to EWALD:  gamma=   0.264
 Maximum number of real-space cells 4x 4x 2
 Maximum number of reciprocal cells 2x 2x 5

    FEWALD:  cpu time    0.0019: real time    0.0019


--------------------------------------- Iteration      1(   1)  ---------------------------------------


    POTLOK:  cpu time    0.1033: real time    0.1036
    SETDIJ:  cpu time    0.0140: real time    0.0140
     EDDAV:  cpu time   15.5235: real time   15.5716
 BZINTS: Fermi energy: 30.208973;276.000000 electrons
         Band energy:1591.485802;  BLOECHL correction: -0.100853
       DOS:  cpu time    0.0463: real time    0.0464
    --------------------------------------------
      LOOP:  cpu time   15.6871: real time   15.7357

 eigenvalue-minimisations  : 11532
 total energy-change (2. order) : 0.4607952E+04  (-0.1578565E+05)
 number of electron     276.0000000 magnetization      70.8000000
 augmentation part      276.0000000 magnetization      70.8000000

 Free energy of the ion-electron system (eV)
  ---------------------------------------------------
  alpha Z        PSCENC =      1362.55286497
  Ewald energy   TEWEN  =    -25513.06237826
  -Hartree energ DENC   =    -10371.14386019
  -exchange      EXHF   =         0.00000000
  -V(xc)+E(xc)   XCENC  =      1375.27779759
  PAW double counting   =     30224.59406688   -31333.39571732
  entropy T*S    EENTRO =         0.00000000
  eigenvalues    EBANDS =      1591.48580172
  atomic energy  EATOM  =     37271.64332354
  Solvation  Ediel_sol  =         0.00000000
  ---------------------------------------------------
  free energy    TOTEN  =      4607.95189893 eV

  energy without entropy =     4607.95189893  energy(sigma->0) =     4607.95189893


--------------------------------------------------------------------------------------------------------




--------------------------------------- Iteration      1(   2)  ---------------------------------------


     EDDAV:  cpu time   15.3223: real time   15.3632
 BZINTS: Fermi energy: 11.709307;276.000000 electrons
         Band energy:***********;  BLOECHL correction: -0.036587
       DOS:  cpu time    0.0481: real time    0.0483
    --------------------------------------------
      LOOP:  cpu time   15.3705: real time   15.4115

 eigenvalue-minimisations  : 11424
 total energy-change (2. order) :-0.4084145E+04  (-0.3725628E+04)
 number of electron     276.0000000 magnetization      70.8000000
 augmentation part      276.0000000 magnetization      70.8000000

 Free energy of the ion-electron system (eV)
  ---------------------------------------------------
  alpha Z        PSCENC =      1362.55286497
  Ewald energy   TEWEN  =    -25513.06237826
  -Hartree energ DENC   =    -10371.14386019
  -exchange      EXHF   =         0.00000000
  -V(xc)+E(xc)   XCENC  =      1375.27779759
  PAW double counting   =     30224.59406688   -31333.39571732
  entropy T*S    EENTRO =         0.00000000
  eigenvalues    EBANDS =     -2492.65907758
  atomic energy  EATOM  =     37271.64332354
  Solvation  Ediel_sol  =         0.00000000
  ---------------------------------------------------
  free energy    TOTEN  =       523.80701963 eV

  energy without entropy =      523.80701963  energy(sigma->0) =      523.80701963


--------------------------------------------------------------------------------------------------------




--------------------------------------- Iteration      1(   3)  ---------------------------------------


     EDDAV:  cpu time   15.9246: real time   15.9653
 BZINTS: Fermi energy:  8.701377;276.000000 electrons
         Band energy:***********;  BLOECHL correction:  0.000000
       DOS:  cpu time    0.0072: real time    0.0072
    --------------------------------------------
      LOOP:  cpu time   15.9318: real time   15.9726

 eigenvalue-minimisations  : 11880
 total energy-change (2. order) :-0.7650332E+03  (-0.6719834E+03)
 number of electron     276.0000000 magnetization      70.8000000
 augmentation part      276.0000000 magnetization      70.8000000

 Free energy of the ion-electron system (eV)
  ---------------------------------------------------
  alpha Z        PSCENC =      1362.55286497
  Ewald energy   TEWEN  =    -25513.06237826
  -Hartree energ DENC   =    -10371.14386019
  -exchange      EXHF   =         0.00000000
  -V(xc)+E(xc)   XCENC  =      1375.27779759
  PAW double counting   =     30224.59406688   -31333.39571732
  entropy T*S    EENTRO =         0.00000000
  eigenvalues    EBANDS =     -3257.69229699
  atomic energy  EATOM  =     37271.64332354
  Solvation  Ediel_sol  =         0.00000000
  ---------------------------------------------------
  free energy    TOTEN  =      -241.22619978 eV

  energy without entropy =     -241.22619978  energy(sigma->0) =     -241.22619978


--------------------------------------------------------------------------------------------------------




--------------------------------------- Iteration      1(   4)  ---------------------------------------


     EDDAV:  cpu time   16.9448: real time   16.9889
 BZINTS: Fermi energy:  8.269316;276.000000 electrons
         Band energy:***********;  BLOECHL correction:  0.000000
       DOS:  cpu time    0.0076: real time    0.0077
    --------------------------------------------
      LOOP:  cpu time   16.9524: real time   16.9966

 eigenvalue-minimisations  : 12936
 total energy-change (2. order) :-0.5262876E+02  (-0.5199688E+02)
 number of electron     276.0000000 magnetization      70.8000000
 augmentation part      276.0000000 magnetization      70.8000000

 Free energy of the ion-electron system (eV)
  ---------------------------------------------------
  alpha Z        PSCENC =      1362.55286497
  Ewald energy   TEWEN  =    -25513.06237826
  -Hartree energ DENC   =    -10371.14386019
  -exchange      EXHF   =         0.00000000
  -V(xc)+E(xc)   XCENC  =      1375.27779759
  PAW double counting   =     30224.59406688   -31333.39571732
  entropy T*S    EENTRO =         0.00000000
  eigenvalues    EBANDS =     -3310.32106163
  atomic energy  EATOM  =     37271.64332354
  Solvation  Ediel_sol  =         0.00000000
  ---------------------------------------------------
  free energy    TOTEN  =      -293.85496442 eV

  energy without entropy =     -293.85496442  energy(sigma->0) =     -293.85496442


--------------------------------------------------------------------------------------------------------




--------------------------------------- Iteration      1(   5)  ---------------------------------------


     EDDAV:  cpu time   16.7186: real time   16.7612
 BZINTS: Fermi energy:  8.293055;276.000000 electrons
         Band energy:***********;  BLOECHL correction:  0.000000
       DOS:  cpu time    0.0076: real time    0.0077
    CHARGE:  cpu time    0.5664: real time    0.5677
    MIXING:  cpu time    0.0024: real time    0.0025
    --------------------------------------------
      LOOP:  cpu time   17.2950: real time   17.3391

 eigenvalue-minimisations  : 12720
 total energy-change (2. order) :-0.5955828E+00  (-0.5939594E+00)
 number of electron     276.0000079 magnetization      67.8179418
 augmentation part      108.0185738 magnetization      47.0425206

 Broyden mixing:
  rms(total) = 0.80916E+01    rms(broyden)= 0.80915E+01
  rms(prec ) = 0.88379E+01
  weight for this iteration     100.00

 Free energy of the ion-electron system (eV)
  ---------------------------------------------------
  alpha Z        PSCENC =      1362.55286497
  Ewald energy   TEWEN  =    -25513.06237826
  -Hartree energ DENC   =    -10371.14386019
  -exchange      EXHF   =         0.00000000
  -V(xc)+E(xc)   XCENC  =      1375.27779759
  PAW double counting   =     30224.59406688   -31333.39571732
  entropy T*S    EENTRO =         0.00000000
  eigenvalues    EBANDS =     -3310.91664447
  atomic energy  EATOM  =     37271.64332354
  Solvation  Ediel_sol  =         0.00000000
  ---------------------------------------------------
  free energy    TOTEN  =      -294.45054726 eV

  energy without entropy =     -294.45054726  energy(sigma->0) =     -294.45054726


--------------------------------------------------------------------------------------------------------




--------------------------------------- Iteration      1(   6)  ---------------------------------------


    POTLOK:  cpu time    0.1009: real time    0.1017
    SETDIJ:  cpu time    0.0141: real time    0.0142
     EDDAV:  cpu time   18.8994: real time   18.9479
 BZINTS: Fermi energy:  5.535327;276.000000 electrons
         Band energy:***********;  BLOECHL correction: -0.054758
       DOS:  cpu time    0.0500: real time    0.0502
    CHARGE:  cpu time    0.5850: real time    0.5866
    MIXING:  cpu time    0.0024: real time    0.0024
    --------------------------------------------
      LOOP:  cpu time   19.6518: real time   19.7028

 eigenvalue-minimisations  : 14808
 total energy-change (2. order) : 0.5914646E+02  (-0.2532136E+02)
 number of electron     276.0000125 magnetization      62.9828579
 augmentation part      120.7253053 magnetization      54.4228128

 Broyden mixing:
  rms(total) = 0.91288E+01    rms(broyden)= 0.91285E+01
  rms(prec ) = 0.97786E+01
  weight for this iteration     100.00

 eigenvalues of (default mixing * dielectric matrix)
  average eigenvalue GAMMA=   0.3183
  0.3183

 Free energy of the ion-electron system (eV)
  ---------------------------------------------------
  alpha Z        PSCENC =      1362.55286497
  Ewald energy   TEWEN  =    -25513.06237826
  -Hartree energ DENC   =     -9965.80197579
  -exchange      EXHF   =         0.00000000
  -V(xc)+E(xc)   XCENC  =      1376.64768893
  PAW double counting   =     31436.72421177   -32503.61196517
  entropy T*S    EENTRO =         0.00000000
  eigenvalues    EBANDS =     -3700.39585976
  atomic energy  EATOM  =     37271.64332354
  Solvation  Ediel_sol  =         0.00000000
  ---------------------------------------------------
  free energy    TOTEN  =      -235.30408977 eV

  energy without entropy =     -235.30408977  energy(sigma->0) =     -235.30408977


--------------------------------------------------------------------------------------------------------




--------------------------------------- Iteration      1(   7)  ---------------------------------------


    POTLOK:  cpu time    0.1010: real time    0.1017
    SETDIJ:  cpu time    0.0142: real time    0.0142
     EDDAV:  cpu time   16.2465: real time   16.2874
 BZINTS: Fermi energy:  7.083127;276.000000 electrons
         Band energy:***********;  BLOECHL correction: -0.036203
       DOS:  cpu time    0.0493: real time    0.0494
    CHARGE:  cpu time    0.5695: real time    0.5710
    MIXING:  cpu time    0.0022: real time    0.0022
    --------------------------------------------
      LOOP:  cpu time   16.9826: real time   17.0260

 eigenvalue-minimisations  : 12276
 total energy-change (2. order) : 0.2369914E+02  (-0.1138896E+02)
 number of electron     276.0000092 magnetization      58.7906381
 augmentation part      109.3614313 magnetization      40.3010482

 Broyden mixing:
  rms(total) = 0.43689E+01    rms(broyden)= 0.43688E+01
  rms(prec ) = 0.45291E+01
  weight for this iteration     100.00

 eigenvalues of (default mixing * dielectric matrix)
  average eigenvalue GAMMA=   0.6797
  1.0294  0.3299

 Free energy of the ion-electron system (eV)
  ---------------------------------------------------
  alpha Z        PSCENC =      1362.55286497
  Ewald energy   TEWEN  =    -25513.06237826
  -Hartree energ DENC   =    -10207.80831576
  -exchange      EXHF   =         0.00000000
  -V(xc)+E(xc)   XCENC  =      1372.46495967
  PAW double counting   =     32869.67717237   -33998.11526504
  entropy T*S    EENTRO =         0.00000000
  eigenvalues    EBANDS =     -3368.95730896
  atomic energy  EATOM  =     37271.64332354
  Solvation  Ediel_sol  =         0.00000000
  ---------------------------------------------------
  free energy    TOTEN  =      -211.60494747 eV

  energy without entropy =     -211.60494747  energy(sigma->0) =     -211.60494747


--------------------------------------------------------------------------------------------------------




--------------------------------------- Iteration      1(   8)  ---------------------------------------


    POTLOK:  cpu time    0.0962: real time    0.0965
    SETDIJ:  cpu time    0.0140: real time    0.0140
     EDDAV:  cpu time   16.0506: real time   16.0911
 BZINTS: Fermi energy:  6.450456;276.000000 electrons
         Band energy:***********;  BLOECHL correction: -0.034122
       DOS:  cpu time    0.0521: real time    0.0522
    CHARGE:  cpu time    0.5723: real time    0.5738
    MIXING:  cpu time    0.0023: real time    0.0023
    --------------------------------------------
      LOOP:  cpu time   16.7874: real time   16.8300

 eigenvalue-minimisations  : 12132
 total energy-change (2. order) :-0.6703405E+01  (-0.2130239E+01)
 number of electron     276.0000095 magnetization      51.8984955
 augmentation part      111.2645016 magnetization      34.9865751

 Broyden mixing:
  rms(total) = 0.26412E+01    rms(broyden)= 0.26412E+01
  rms(prec ) = 0.27012E+01
  weight for this iteration     100.00

 eigenvalues of (default mixing * dielectric matrix)
  average eigenvalue GAMMA=   1.0826
  2.2789  0.5875  0.3814

 Free energy of the ion-electron system (eV)
  ---------------------------------------------------
  alpha Z        PSCENC =      1362.55286497
  Ewald energy   TEWEN  =    -25513.06237826
  -Hartree energ DENC   =    -10073.32574241
  -exchange      EXHF   =         0.00000000
  -V(xc)+E(xc)   XCENC  =      1366.45747156
  PAW double counting   =     34233.45538060   -35373.73369523
  entropy T*S    EENTRO =         0.00000000
  eigenvalues    EBANDS =     -3492.29557752
  atomic energy  EATOM  =     37271.64332354
  Solvation  Ediel_sol  =         0.00000000
  ---------------------------------------------------
  free energy    TOTEN  =      -218.30835274 eV

  energy without entropy =     -218.30835274  energy(sigma->0) =     -218.30835274


--------------------------------------------------------------------------------------------------------




--------------------------------------- Iteration      1(   9)  ---------------------------------------


    POTLOK:  cpu time    0.0973: real time    0.0977
    SETDIJ:  cpu time    0.0141: real time    0.0141
     EDDAV:  cpu time   16.6312: real time   16.6737
 BZINTS: Fermi energy:  5.874196;276.000000 electrons
         Band energy:***********;  BLOECHL correction: -0.039334
       DOS:  cpu time    0.0521: real time    0.0524
    CHARGE:  cpu time    0.5808: real time    0.5822
    MIXING:  cpu time    0.0026: real time    0.0026
    --------------------------------------------
      LOOP:  cpu time   17.3781: real time   17.4226

 eigenvalue-minimisations  : 12588
 total energy-change (2. order) :-0.4236276E+01  (-0.8294777E+00)
 number of electron     276.0000105 magnetization      50.9247405
 augmentation part      114.1755052 magnetization      37.8520820

 Broyden mixing:
  rms(total) = 0.27435E+01    rms(broyden)= 0.27435E+01
  rms(prec ) = 0.28775E+01
  weight for this iteration     100.00

 eigenvalues of (default mixing * dielectric matrix)
  average eigenvalue GAMMA=   1.1008
  2.8497  0.8039  0.3748  0.3748

 Free energy of the ion-electron system (eV)
  ---------------------------------------------------
  alpha Z        PSCENC =      1362.55286497
  Ewald energy   TEWEN  =    -25513.06237826
  -Hartree energ DENC   =     -9932.21179806
  -exchange      EXHF   =         0.00000000
  -V(xc)+E(xc)   XCENC  =      1362.32612967
  PAW double counting   =     36534.88327408   -37704.02890218
  entropy T*S    EENTRO =         0.00000000
  eigenvalues    EBANDS =     -3604.64714260
  atomic energy  EATOM  =     37271.64332354
  Solvation  Ediel_sol  =         0.00000000
  ---------------------------------------------------
  free energy    TOTEN  =      -222.54462883 eV

  energy without entropy =     -222.54462883  energy(sigma->0) =     -222.54462883


--------------------------------------------------------------------------------------------------------




--------------------------------------- Iteration      1(  10)  ---------------------------------------


    POTLOK:  cpu time    0.0999: real time    0.1006
    SETDIJ:  cpu time    0.0141: real time    0.0141
     EDDAV:  cpu time   16.6291: real time   16.6711
 BZINTS: Fermi energy:  5.957600;276.000000 electrons
         Band energy:***********;  BLOECHL correction: -0.037317
       DOS:  cpu time    0.0507: real time    0.0508
    CHARGE:  cpu time    0.5822: real time    0.5837
    MIXING:  cpu time    0.0026: real time    0.0026
    --------------------------------------------
      LOOP:  cpu time   17.3786: real time   17.4231

 eigenvalue-minimisations  : 12588
 total energy-change (2. order) : 0.4019270E+00  (-0.2484192E+00)
 number of electron     276.0000104 magnetization      50.6124356
 augmentation part      113.4284693 magnetization      37.3115116

 Broyden mixing:
  rms(total) = 0.18619E+01    rms(broyden)= 0.18619E+01
  rms(prec ) = 0.19736E+01
  weight for this iteration     100.00

 eigenvalues of (default mixing * dielectric matrix)
  average eigenvalue GAMMA=   1.0197
  2.6157  0.3736  0.7702  0.6694  0.6694

 Free energy of the ion-electron system (eV)
  ---------------------------------------------------
  alpha Z        PSCENC =      1362.55286497
  Ewald energy   TEWEN  =    -25513.06237826
  -Hartree energ DENC   =     -9948.86909460
  -exchange      EXHF   =         0.00000000
  -V(xc)+E(xc)   XCENC  =      1360.90065887
  PAW double counting   =     36553.48563572   -37725.77177139
  entropy T*S    EENTRO =         0.00000000
  eigenvalues    EBANDS =     -3583.02194066
  atomic energy  EATOM  =     37271.64332354
  Solvation  Ediel_sol  =         0.00000000
  ---------------------------------------------------
  free energy    TOTEN  =      -222.14270181 eV

  energy without entropy =     -222.14270181  energy(sigma->0) =     -222.14270181


--------------------------------------------------------------------------------------------------------




--------------------------------------- Iteration      1(  11)  ---------------------------------------


    POTLOK:  cpu time    0.1040: real time    0.1044
    SETDIJ:  cpu time    0.0144: real time    0.0144
     EDDAV:  cpu time   18.3582: real time   18.4045
 BZINTS: Fermi energy:  6.019635;276.000000 electrons
         Band energy:***********;  BLOECHL correction: -0.034030
       DOS:  cpu time    0.0534: real time    0.0535
    CHARGE:  cpu time    0.5710: real time    0.5725
    MIXING:  cpu time    0.0024: real time    0.0024
    --------------------------------------------
      LOOP:  cpu time   19.1033: real time   19.1516

 eigenvalue-minimisations  : 14256
 total energy-change (2. order) : 0.5728368E+00  (-0.2398416E-01)
 number of electron     276.0000102 magnetization      49.3084330
 augmentation part      113.0039134 magnetization      35.6184170

 Broyden mixing:
  rms(total) = 0.12145E+01    rms(broyden)= 0.12145E+01
  rms(prec ) = 0.12881E+01
  weight for this iteration     100.00

 eigenvalues of (default mixing * dielectric matrix)
  average eigenvalue GAMMA=   1.0454
  2.5830  0.9723  0.9723  0.3786  0.7990  0.5675

 Free energy of the ion-electron system (eV)
  ---------------------------------------------------
  alpha Z        PSCENC =      1362.55286497
  Ewald energy   TEWEN  =    -25513.06237826
  -Hartree energ DENC   =     -9960.07372851
  -exchange      EXHF   =         0.00000000
  -V(xc)+E(xc)   XCENC  =      1360.21953914
  PAW double counting   =     36382.29610074   -37552.56583276
  entropy T*S    EENTRO =         0.00000000
  eigenvalues    EBANDS =     -3572.57975390
  atomic energy  EATOM  =     37271.64332354
  Solvation  Ediel_sol  =         0.00000000
  ---------------------------------------------------
  free energy    TOTEN  =      -221.56986504 eV

  energy without entropy =     -221.56986504  energy(sigma->0) =     -221.56986504


--------------------------------------------------------------------------------------------------------




--------------------------------------- Iteration      1(  12)  ---------------------------------------


    POTLOK:  cpu time    0.0965: real time    0.0968
    SETDIJ:  cpu time    0.0140: real time    0.0140
     EDDAV:  cpu time   19.0928: real time   19.1417
 BZINTS: Fermi energy:  6.079817;276.000000 electrons
         Band energy:***********;  BLOECHL correction: -0.033427
       DOS:  cpu time    0.0506: real time    0.0507
    CHARGE:  cpu time    0.5803: real time    0.5818
    MIXING:  cpu time    0.0029: real time    0.0029
    --------------------------------------------
      LOOP:  cpu time   19.8371: real time   19.8879

 eigenvalue-minimisations  : 15168
 total energy-change (2. order) : 0.1998620E+00  (-0.1936448E-01)
 number of electron     276.0000101 magnetization      46.8467003
 augmentation part      112.6851895 magnetization      33.0570251

 Broyden mixing:
  rms(total) = 0.84667E+00    rms(broyden)= 0.84667E+00
  rms(prec ) = 0.88807E+00
  weight for this iteration     100.00

 eigenvalues of (default mixing * dielectric matrix)
  average eigenvalue GAMMA=   1.0984
  2.0625  1.8332  1.3931  0.3772  0.7499  0.6366  0.6366

 Free energy of the ion-electron system (eV)
  ---------------------------------------------------
  alpha Z        PSCENC =      1362.55286497
  Ewald energy   TEWEN  =    -25513.06237826
  -Hartree energ DENC   =     -9973.22342241
  -exchange      EXHF   =         0.00000000
  -V(xc)+E(xc)   XCENC  =      1359.59416459
  PAW double counting   =     36267.78764885   -37437.03657830
  entropy T*S    EENTRO =         0.00000000
  eigenvalues    EBANDS =     -3559.62562601
  atomic energy  EATOM  =     37271.64332354
  Solvation  Ediel_sol  =         0.00000000
  ---------------------------------------------------
  free energy    TOTEN  =      -221.37000303 eV

  energy without entropy =     -221.37000303  energy(sigma->0) =     -221.37000303


--------------------------------------------------------------------------------------------------------




--------------------------------------- Iteration      1(  13)  ---------------------------------------


    POTLOK:  cpu time    0.1007: real time    0.1011
    SETDIJ:  cpu time    0.0142: real time    0.0142
     EDDAV:  cpu time   18.0113: real time   18.0568
 BZINTS: Fermi energy:  6.141058;276.000000 electrons
         Band energy:***********;  BLOECHL correction: -0.034448
       DOS:  cpu time    0.0486: real time    0.0487
    CHARGE:  cpu time    0.5706: real time    0.5719
    MIXING:  cpu time    0.0028: real time    0.0028
    --------------------------------------------
      LOOP:  cpu time   18.7481: real time   18.7955

 eigenvalue-minimisations  : 13908
 total energy-change (2. order) : 0.4813764E-02  (-0.1146760E-01)
 number of electron     276.0000101 magnetization      43.9441646
 augmentation part      112.4064057 magnetization      30.3991217

 Broyden mixing:
  rms(total) = 0.46163E+00    rms(broyden)= 0.46163E+00
  rms(prec ) = 0.48468E+00
  weight for this iteration     100.00

 eigenvalues of (default mixing * dielectric matrix)
  average eigenvalue GAMMA=   1.3967
  3.4443  3.4443  0.3775  0.9303  0.9303  0.7228  0.7228  0.6013

 Free energy of the ion-electron system (eV)
  ---------------------------------------------------
  alpha Z        PSCENC =      1362.55286497
  Ewald energy   TEWEN  =    -25513.06237826
  -Hartree energ DENC   =     -9991.56876224
  -exchange      EXHF   =         0.00000000
  -V(xc)+E(xc)   XCENC  =      1358.76428229
  PAW double counting   =     36036.01410141   -37202.21066626
  entropy T*S    EENTRO =         0.00000000
  eigenvalues    EBANDS =     -3543.49795471
  atomic energy  EATOM  =     37271.64332354
  Solvation  Ediel_sol  =         0.00000000
  ---------------------------------------------------
  free energy    TOTEN  =      -221.36518926 eV

  energy without entropy =     -221.36518926  energy(sigma->0) =     -221.36518926


--------------------------------------------------------------------------------------------------------




--------------------------------------- Iteration      1(  14)  ---------------------------------------


    POTLOK:  cpu time    0.0969: real time    0.0974
    SETDIJ:  cpu time    0.0142: real time    0.0142
     EDDAV:  cpu time   18.9705: real time   19.0189
 BZINTS: Fermi energy:  6.173419;276.000000 electrons
         Band energy:***********;  BLOECHL correction: -0.032753
       DOS:  cpu time    0.0507: real time    0.0509
    CHARGE:  cpu time    0.5838: real time    0.5852
    MIXING:  cpu time    0.0030: real time    0.0030
    --------------------------------------------
      LOOP:  cpu time   19.7191: real time   19.7696

 eigenvalue-minimisations  : 15060
 total energy-change (2. order) :-0.4601857E-01  (-0.1596792E-01)
 number of electron     276.0000100 magnetization      43.0463118
 augmentation part      112.2212239 magnetization      29.8834636

 Broyden mixing:
  rms(total) = 0.17538E+00    rms(broyden)= 0.17537E+00
  rms(prec ) = 0.18250E+00
  weight for this iteration     100.00

 eigenvalues of (default mixing * dielectric matrix)
  average eigenvalue GAMMA=   1.5076
  5.3552  2.7779  1.2393  0.3775  0.8425  0.8425  0.8776  0.6278  0.6278

 Free energy of the ion-electron system (eV)
  ---------------------------------------------------
  alpha Z        PSCENC =      1362.55286497
  Ewald energy   TEWEN  =    -25513.06237826
  -Hartree energ DENC   =    -10004.17975571
  -exchange      EXHF   =         0.00000000
  -V(xc)+E(xc)   XCENC  =      1357.67159476
  PAW double counting   =     35835.84778489   -36999.03852274
  entropy T*S    EENTRO =         0.00000000
  eigenvalues    EBANDS =     -3532.84611929
  atomic energy  EATOM  =     37271.64332354
  Solvation  Ediel_sol  =         0.00000000
  ---------------------------------------------------
  free energy    TOTEN  =      -221.41120783 eV

  energy without entropy =     -221.41120783  energy(sigma->0) =     -221.41120783


--------------------------------------------------------------------------------------------------------




--------------------------------------- Iteration      1(  15)  ---------------------------------------


    POTLOK:  cpu time    0.1002: real time    0.1006
    SETDIJ:  cpu time    0.0142: real time    0.0142
     EDDAV:  cpu time   16.4062: real time   16.4479
 BZINTS: Fermi energy:  6.157871;276.000000 electrons
         Band energy:***********;  BLOECHL correction: -0.033008
       DOS:  cpu time    0.0519: real time    0.0520
    CHARGE:  cpu time    0.5764: real time    0.5777
    MIXING:  cpu time    0.0031: real time    0.0031
    --------------------------------------------
      LOOP:  cpu time   17.1519: real time   17.1956

 eigenvalue-minimisations  : 12396
 total energy-change (2. order) :-0.1894439E-01  (-0.6349215E-02)
 number of electron     276.0000100 magnetization      42.6117691
 augmentation part      112.2796939 magnetization      29.6260428

 Broyden mixing:
  rms(total) = 0.14232E+00    rms(broyden)= 0.14231E+00
  rms(prec ) = 0.15095E+00
  weight for this iteration     100.00

 eigenvalues of (default mixing * dielectric matrix)
  average eigenvalue GAMMA=   1.5453
  6.1101  2.8489  1.3591  1.0780  0.3775  0.8485  0.8485  0.6934  0.6934  0.5955

 Free energy of the ion-electron system (eV)
  ---------------------------------------------------
  alpha Z        PSCENC =      1362.55286497
  Ewald energy   TEWEN  =    -25513.06237826
  -Hartree energ DENC   =    -10002.59547091
  -exchange      EXHF   =         0.00000000
  -V(xc)+E(xc)   XCENC  =      1357.18051096
  PAW double counting   =     35824.45652547   -36987.28987422
  entropy T*S    EENTRO =         0.00000000
  eigenvalues    EBANDS =     -3534.31565376
  atomic energy  EATOM  =     37271.64332354
  Solvation  Ediel_sol  =         0.00000000
  ---------------------------------------------------
  free energy    TOTEN  =      -221.43015222 eV

  energy without entropy =     -221.43015222  energy(sigma->0) =     -221.43015222


--------------------------------------------------------------------------------------------------------




--------------------------------------- Iteration      1(  16)  ---------------------------------------


    POTLOK:  cpu time    0.1001: real time    0.1004
    SETDIJ:  cpu time    0.0141: real time    0.0141
     EDDAV:  cpu time   18.3116: real time   18.3590
 BZINTS: Fermi energy:  6.180102;276.000000 electrons
         Band energy:***********;  BLOECHL correction: -0.032860
       DOS:  cpu time    0.0505: real time    0.0506
    CHARGE:  cpu time    0.5769: real time    0.5782
    MIXING:  cpu time    0.0034: real time    0.0034
    --------------------------------------------
      LOOP:  cpu time   19.0565: real time   19.1058

 eigenvalue-minimisations  : 14220
 total energy-change (2. order) : 0.5334277E-02  (-0.9689476E-03)
 number of electron     276.0000100 magnetization      42.4822484
 augmentation part      112.1851433 magnetization      29.4918740

 Broyden mixing:
  rms(total) = 0.34998E-01    rms(broyden)= 0.34994E-01
  rms(prec ) = 0.36486E-01
  weight for this iteration     100.00

 eigenvalues of (default mixing * dielectric matrix)
  average eigenvalue GAMMA=   1.5346
  6.2910  2.7881  1.3170  1.3170  1.0963  0.3775  0.8121  0.8121  0.7312  0.7312
  0.6076

 Free energy of the ion-electron system (eV)
  ---------------------------------------------------
  alpha Z        PSCENC =      1362.55286497
  Ewald energy   TEWEN  =    -25513.06237826
  -Hartree energ DENC   =    -10007.34919686
  -exchange      EXHF   =         0.00000000
  -V(xc)+E(xc)   XCENC  =      1357.07574810
  PAW double counting   =     35783.08517199   -36945.84376387
  entropy T*S    EENTRO =         0.00000000
  eigenvalues    EBANDS =     -3529.52658756
  atomic energy  EATOM  =     37271.64332354
  Solvation  Ediel_sol  =         0.00000000
  ---------------------------------------------------
  free energy    TOTEN  =      -221.42481794 eV

  energy without entropy =     -221.42481794  energy(sigma->0) =     -221.42481794


--------------------------------------------------------------------------------------------------------




--------------------------------------- Iteration      1(  17)  ---------------------------------------


    POTLOK:  cpu time    0.1001: real time    0.1011
    SETDIJ:  cpu time    0.0142: real time    0.0142
     EDDAV:  cpu time   16.2739: real time   16.3163
 BZINTS: Fermi energy:  6.180862;276.000000 electrons
         Band energy:***********;  BLOECHL correction: -0.032809
       DOS:  cpu time    0.0482: real time    0.0484
    CHARGE:  cpu time    0.5776: real time    0.5792
    MIXING:  cpu time    0.0034: real time    0.0034
    --------------------------------------------
      LOOP:  cpu time   17.0176: real time   17.0626

 eigenvalue-minimisations  : 12300
 total energy-change (2. order) :-0.7076657E-03  (-0.4698475E-03)
 number of electron     276.0000100 magnetization      42.3887045
 augmentation part      112.1825970 magnetization      29.4120149

 Broyden mixing:
  rms(total) = 0.18493E-01    rms(broyden)= 0.18491E-01
  rms(prec ) = 0.19063E-01
  weight for this iteration     100.00

 eigenvalues of (default mixing * dielectric matrix)
  average eigenvalue GAMMA=   1.5585
  6.4820  2.7640  2.4552  1.0751  1.0751  0.3775  0.8907  0.8907  0.7172  0.7172
  0.6032  0.6540

 Free energy of the ion-electron system (eV)
  ---------------------------------------------------
  alpha Z        PSCENC =      1362.55286497
  Ewald energy   TEWEN  =    -25513.06237826
  -Hartree energ DENC   =    -10007.00235208
  -exchange      EXHF   =         0.00000000
  -V(xc)+E(xc)   XCENC  =      1357.01425011
  PAW double counting   =     35803.31890325   -36966.63580238
  entropy T*S    EENTRO =         0.00000000
  eigenvalues    EBANDS =     -3529.25433477
  atomic energy  EATOM  =     37271.64332354
  Solvation  Ediel_sol  =         0.00000000
  ---------------------------------------------------
  free energy    TOTEN  =      -221.42552561 eV

  energy without entropy =     -221.42552561  energy(sigma->0) =     -221.42552561


--------------------------------------------------------------------------------------------------------




--------------------------------------- Iteration      1(  18)  ---------------------------------------


    POTLOK:  cpu time    0.1006: real time    0.1010
    SETDIJ:  cpu time    0.0141: real time    0.0141
     EDDAV:  cpu time   18.1953: real time   18.2412
 BZINTS: Fermi energy:  6.181168;276.000000 electrons
         Band energy:***********;  BLOECHL correction: -0.032937
       DOS:  cpu time    0.0494: real time    0.0495
    CHARGE:  cpu time    0.5759: real time    0.5773
    MIXING:  cpu time    0.0036: real time    0.0037
    --------------------------------------------
      LOOP:  cpu time   18.9389: real time   18.9868

 eigenvalue-minimisations  : 14148
 total energy-change (2. order) :-0.2432446E-03  (-0.2098530E-04)
 number of electron     276.0000100 magnetization      42.3365706
 augmentation part      112.1783380 magnetization      29.3773373

 Broyden mixing:
  rms(total) = 0.91895E-02    rms(broyden)= 0.91888E-02
  rms(prec ) = 0.95677E-02
  weight for this iteration     100.00

 eigenvalues of (default mixing * dielectric matrix)
  average eigenvalue GAMMA=   1.5287
  6.6130  2.8385  2.4482  1.1512  1.1512  0.9550  0.9550  0.3775  0.7361  0.7361
  0.6936  0.6092  0.6092

 Free energy of the ion-electron system (eV)
  ---------------------------------------------------
  alpha Z        PSCENC =      1362.55286497
  Ewald energy   TEWEN  =    -25513.06237826
  -Hartree energ DENC   =    -10007.25827450
  -exchange      EXHF   =         0.00000000
  -V(xc)+E(xc)   XCENC  =      1356.96777456
  PAW double counting   =     35801.82321625   -36965.19001598
  entropy T*S    EENTRO =         0.00000000
  eigenvalues    EBANDS =     -3528.90227943
  atomic energy  EATOM  =     37271.64332354
  Solvation  Ediel_sol  =         0.00000000
  ---------------------------------------------------
  free energy    TOTEN  =      -221.42576885 eV

  energy without entropy =     -221.42576885  energy(sigma->0) =     -221.42576885


--------------------------------------------------------------------------------------------------------




--------------------------------------- Iteration      1(  19)  ---------------------------------------


    POTLOK:  cpu time    0.1000: real time    0.1004
    SETDIJ:  cpu time    0.0141: real time    0.0141
     EDDAV:  cpu time   17.6815: real time   17.7264
 BZINTS: Fermi energy:  6.182183;276.000000 electrons
         Band energy:***********;  BLOECHL correction: -0.033000
       DOS:  cpu time    0.0518: real time    0.0519
    CHARGE:  cpu time    0.5821: real time    0.5837
    MIXING:  cpu time    0.0037: real time    0.0037
    --------------------------------------------
      LOOP:  cpu time   18.4332: real time   18.4802

 eigenvalue-minimisations  : 13800
 total energy-change (2. order) :-0.5997327E-04  (-0.9371623E-05)
 number of electron     276.0000100 magnetization      42.3247382
 augmentation part      112.1737510 magnetization      29.3738904

 Broyden mixing:
  rms(total) = 0.20103E-02    rms(broyden)= 0.20091E-02
  rms(prec ) = 0.21450E-02
  weight for this iteration     100.00

 eigenvalues of (default mixing * dielectric matrix)
  average eigenvalue GAMMA=   1.5151
  6.6903  2.8531  2.4117  1.4046  1.2036  0.9968  0.9968  0.3775  0.7745  0.7745
  0.7527  0.7527  0.6116  0.6116

 Free energy of the ion-electron system (eV)
  ---------------------------------------------------
  alpha Z        PSCENC =      1362.55286497
  Ewald energy   TEWEN  =    -25513.06237826
  -Hartree energ DENC   =    -10007.61285055
  -exchange      EXHF   =         0.00000000
  -V(xc)+E(xc)   XCENC  =      1356.94737709
  PAW double counting   =     35797.29822446   -36960.61072989
  entropy T*S    EENTRO =         0.00000000
  eigenvalues    EBANDS =     -3528.58166018
  atomic energy  EATOM  =     37271.64332354
  Solvation  Ediel_sol  =         0.00000000
  ---------------------------------------------------
  free energy    TOTEN  =      -221.42582883 eV

  energy without entropy =     -221.42582883  energy(sigma->0) =     -221.42582883


--------------------------------------------------------------------------------------------------------




--------------------------------------- Iteration      1(  20)  ---------------------------------------


    POTLOK:  cpu time    0.0989: real time    0.0996
    SETDIJ:  cpu time    0.0140: real time    0.0140
     EDDAV:  cpu time   16.7570: real time   16.7993
 BZINTS: Fermi energy:  6.182581;276.000000 electrons
         Band energy:***********;  BLOECHL correction: -0.033010
       DOS:  cpu time    0.0519: real time    0.0521
    CHARGE:  cpu time    0.5777: real time    0.5792
    MIXING:  cpu time    0.0038: real time    0.0038
    --------------------------------------------
      LOOP:  cpu time   17.5033: real time   17.5480

 eigenvalue-minimisations  : 12780
 total energy-change (2. order) :-0.1167376E-04  (-0.2723633E-05)
 number of electron     276.0000100 magnetization      42.3209630
 augmentation part      112.1726155 magnetization      29.3718558

 Broyden mixing:
  rms(total) = 0.91088E-03    rms(broyden)= 0.91054E-03
  rms(prec ) = 0.93146E-03
  weight for this iteration     100.00

 eigenvalues of (default mixing * dielectric matrix)
  average eigenvalue GAMMA=   1.5014
  6.7196  2.9524  2.3962  1.7801  1.0625  1.0625  1.0121  1.0121  0.3775  0.7350
  0.7350  0.7341  0.6038  0.6689  0.6689

 Free energy of the ion-electron system (eV)
  ---------------------------------------------------
  alpha Z        PSCENC =      1362.55286497
  Ewald energy   TEWEN  =    -25513.06237826
  -Hartree energ DENC   =    -10007.70866931
  -exchange      EXHF   =         0.00000000
  -V(xc)+E(xc)   XCENC  =      1356.94211977
  PAW double counting   =     35796.91719371   -36960.23131085
  entropy T*S    EENTRO =         0.00000000
  eigenvalues    EBANDS =     -3528.47898407
  atomic energy  EATOM  =     37271.64332354
  Solvation  Ediel_sol  =         0.00000000
  ---------------------------------------------------
  free energy    TOTEN  =      -221.42584050 eV

  energy without entropy =     -221.42584050  energy(sigma->0) =     -221.42584050


--------------------------------------------------------------------------------------------------------




--------------------------------------- Iteration      1(  21)  ---------------------------------------


    POTLOK:  cpu time    0.0999: real time    0.1002
    SETDIJ:  cpu time    0.0141: real time    0.0141
     EDDAV:  cpu time   16.3648: real time   16.4061
 BZINTS: Fermi energy:  6.182851;276.000000 electrons
         Band energy:***********;  BLOECHL correction: -0.033011
       DOS:  cpu time    0.0519: real time    0.0520
    CHARGE:  cpu time    0.5832: real time    0.5847
    MIXING:  cpu time    0.0040: real time    0.0040
    --------------------------------------------
      LOOP:  cpu time   17.1178: real time   17.1612

 eigenvalue-minimisations  : 12360
 total energy-change (2. order) :-0.1315006E-05  (-0.2275570E-06)
 number of electron     276.0000100 magnetization      42.3227384
 augmentation part      112.1717505 magnetization      29.3737222

 Broyden mixing:
  rms(total) = 0.10985E-02    rms(broyden)= 0.10985E-02
  rms(prec ) = 0.11607E-02
  weight for this iteration     100.00

 eigenvalues of (default mixing * dielectric matrix)
  average eigenvalue GAMMA=   1.5003
  6.7258  3.0128  2.3411  2.2660  1.1850  1.1850  0.9981  0.9981  0.3775  0.7809
  0.7809  0.7339  0.7339  0.6651  0.6105  0.6105

 Free energy of the ion-electron system (eV)
  ---------------------------------------------------
  alpha Z        PSCENC =      1362.55286497
  Ewald energy   TEWEN  =    -25513.06237826
  -Hartree energ DENC   =    -10007.76961586
  -exchange      EXHF   =         0.00000000
  -V(xc)+E(xc)   XCENC  =      1356.94209892
  PAW double counting   =     35796.49463464   -36959.81374538
  entropy T*S    EENTRO =         0.00000000
  eigenvalues    EBANDS =     -3528.41302439
  atomic energy  EATOM  =     37271.64332354
  Solvation  Ediel_sol  =         0.00000000
  ---------------------------------------------------
  free energy    TOTEN  =      -221.42584182 eV

  energy without entropy =     -221.42584182  energy(sigma->0) =     -221.42584182


--------------------------------------------------------------------------------------------------------




--------------------------------------- Iteration      1(  22)  ---------------------------------------


    POTLOK:  cpu time    0.1000: real time    0.1020
    SETDIJ:  cpu time    0.0141: real time    0.0141
     EDDAV:  cpu time   14.7973: real time   14.8352
 BZINTS: Fermi energy:  6.182723;276.000000 electrons
         Band energy:***********;  BLOECHL correction: -0.033013
       DOS:  cpu time    0.0506: real time    0.0507
    CHARGE:  cpu time    0.5795: real time    0.5809
    MIXING:  cpu time    0.0043: real time    0.0043
    --------------------------------------------
      LOOP:  cpu time   15.5458: real time   15.5873

 eigenvalue-minimisations  : 10776
 total energy-change (2. order) :-0.1183427E-05  (-0.1093701E-06)
 number of electron     276.0000100 magnetization      42.3252028
 augmentation part      112.1723614 magnetization      29.3762889

 Broyden mixing:
  rms(total) = 0.59006E-03    rms(broyden)= 0.59006E-03
  rms(prec ) = 0.61591E-03
  weight for this iteration     100.00

 eigenvalues of (default mixing * dielectric matrix)
  average eigenvalue GAMMA=   1.4836
  6.7097  3.0054  2.5817  2.2218  1.2508  1.2508  1.0174  1.0174  0.3775  0.8638
  0.8638  0.7305  0.7305  0.7288  0.6069  0.6325  0.6325

 Free energy of the ion-electron system (eV)
  ---------------------------------------------------
  alpha Z        PSCENC =      1362.55286497
  Ewald energy   TEWEN  =    -25513.06237826
  -Hartree energ DENC   =    -10007.74093707
  -exchange      EXHF   =         0.00000000
  -V(xc)+E(xc)   XCENC  =      1356.94230917
  PAW double counting   =     35796.72523335   -36960.04665738
  entropy T*S    EENTRO =         0.00000000
  eigenvalues    EBANDS =     -3528.43960132
  atomic energy  EATOM  =     37271.64332354
  Solvation  Ediel_sol  =         0.00000000
  ---------------------------------------------------
  free energy    TOTEN  =      -221.42584300 eV

  energy without entropy =     -221.42584300  energy(sigma->0) =     -221.42584300


--------------------------------------------------------------------------------------------------------




--------------------------------------- Iteration      1(  23)  ---------------------------------------


    POTLOK:  cpu time    0.1009: real time    0.1016
    SETDIJ:  cpu time    0.0141: real time    0.0142
     EDDAV:  cpu time   13.1402: real time   13.1736
 BZINTS: Fermi energy:  6.182656;276.000000 electrons
         Band energy:***********;  BLOECHL correction: -0.033012
       DOS:  cpu time    0.0519: real time    0.0520
    CHARGE:  cpu time    0.5777: real time    0.5791
    MIXING:  cpu time    0.0045: real time    0.0045
    --------------------------------------------
      LOOP:  cpu time   13.8893: real time   13.9249

 eigenvalue-minimisations  :  9132
 total energy-change (2. order) : 0.1233813E-05  (-0.2723267E-07)
 number of electron     276.0000100 magnetization      42.3260233
 augmentation part      112.1726738 magnetization      29.3768465

 Broyden mixing:
  rms(total) = 0.13458E-03    rms(broyden)= 0.13456E-03
  rms(prec ) = 0.14018E-03
  weight for this iteration     100.00

 eigenvalues of (default mixing * dielectric matrix)
  average eigenvalue GAMMA=   1.4898
  6.7022  3.0175  2.7363  2.2421  1.4593  1.4593  1.0297  1.0297  0.3775  0.9368
  0.9368  0.8443  0.7344  0.7344  0.6730  0.6730  0.6149  0.6149

 Free energy of the ion-electron system (eV)
  ---------------------------------------------------
  alpha Z        PSCENC =      1362.55286497
  Ewald energy   TEWEN  =    -25513.06237826
  -Hartree energ DENC   =    -10007.72045629
  -exchange      EXHF   =         0.00000000
  -V(xc)+E(xc)   XCENC  =      1356.94329245
  PAW double counting   =     35796.98809474   -36960.31361257
  entropy T*S    EENTRO =         0.00000000
  eigenvalues    EBANDS =     -3528.45697035
  atomic energy  EATOM  =     37271.64332354
  Solvation  Ediel_sol  =         0.00000000
  ---------------------------------------------------
  free energy    TOTEN  =      -221.42584177 eV

  energy without entropy =     -221.42584177  energy(sigma->0) =     -221.42584177


--------------------------------------------------------------------------------------------------------




--------------------------------------- Iteration      1(  24)  ---------------------------------------


    POTLOK:  cpu time    0.1008: real time    0.1015
    SETDIJ:  cpu time    0.0142: real time    0.0142
     EDDAV:  cpu time   10.6877: real time   10.7148
 BZINTS: Fermi energy:  6.182652;276.000000 electrons
         Band energy:***********;  BLOECHL correction: -0.033011
       DOS:  cpu time    0.0507: real time    0.0508
    CHARGE:  cpu time    0.5821: real time    0.5836
    MIXING:  cpu time    0.0043: real time    0.0043
    --------------------------------------------
      LOOP:  cpu time   11.4398: real time   11.4693

 eigenvalue-minimisations  :  6624
 total energy-change (2. order) : 0.9471987E-06  (-0.8611686E-08)
 number of electron     276.0000100 magnetization      42.3261106
 augmentation part      112.1727016 magnetization      29.3768118

 Broyden mixing:
  rms(total) = 0.47985E-04    rms(broyden)= 0.47971E-04
  rms(prec ) = 0.50112E-04
  weight for this iteration     100.00

 eigenvalues of (default mixing * dielectric matrix)
[...]
 -0.000  -0.002   0.000  -0.000  -0.001   0.000  -0.000  -0.000  -0.006  -0.000   0.000  -0.000   0.000   0.009  -0.000  -0.000
 total augmentation occupancy for first ion, spin component:           2
 -0.003   0.000  -0.000  -0.010   0.000   0.000   0.002   0.001  -0.000   0.000   0.000  -0.003  -0.002   0.000  -0.000  -0.000
  0.000  -0.003  -0.000  -0.000  -0.010  -0.000  -0.000   0.000  -0.001  -0.000   0.000   0.000  -0.000   0.002  -0.000  -0.000
  0.000  -0.000  -0.003  -0.000   0.000  -0.010   0.000  -0.000   0.000   0.001  -0.002  -0.000   0.000  -0.000  -0.002   0.003
 -0.010  -0.000  -0.000   0.021   0.000   0.000  -0.085  -0.050  -0.000   0.002   0.013   0.049   0.032   0.000  -0.001  -0.008
  0.000  -0.010  -0.000  -0.000   0.017   0.000   0.000   0.000   0.076  -0.000  -0.000   0.000   0.000  -0.043  -0.000   0.000
  0.000  -0.000  -0.010  -0.000  -0.000   0.021   0.013  -0.002  -0.000  -0.050   0.085  -0.008   0.001   0.000   0.032  -0.049
  0.002   0.000   0.000  -0.085  -0.000   0.013   4.294   0.576  -0.000  -0.179   0.000  -2.427  -0.470  -0.000   0.166   0.002
  0.001   0.000  -0.000  -0.050  -0.000  -0.002   0.576   5.019   0.000  -0.000  -0.179  -0.468  -3.024  -0.000   0.003   0.166
 -0.000  -0.001   0.000  -0.000   0.076  -0.000  -0.000   0.000   4.387   0.000  -0.000   0.000  -0.000  -2.383  -0.000   0.000
  0.000  -0.000   0.001   0.002  -0.000  -0.050  -0.179   0.000   0.000   5.019  -0.576   0.166  -0.003  -0.000  -3.024   0.468
  0.000   0.000  -0.002   0.013  -0.000   0.085   0.000  -0.179  -0.000  -0.576   4.294  -0.002   0.166   0.000   0.470  -2.427
 -0.003   0.000  -0.000   0.049   0.000  -0.008  -2.427  -0.468   0.000   0.166  -0.002   1.294   0.331   0.000  -0.129   0.000
 -0.002  -0.000   0.000   0.032  -0.000   0.001  -0.470  -3.024  -0.000  -0.003   0.166   0.331   1.750   0.000   0.000  -0.129
  0.000   0.002  -0.000   0.000  -0.043   0.000  -0.000  -0.000  -2.383  -0.000   0.000   0.000   0.000   1.231   0.000  -0.000
 -0.000  -0.000  -0.002  -0.001   0.000   0.032   0.166   0.003  -0.000  -3.024   0.470  -0.129  -0.000   0.000   1.750  -0.331
 -0.000  -0.000   0.003  -0.008   0.000  -0.049   0.002   0.166   0.000   0.468  -2.427   0.000  -0.129  -0.000  -0.331   1.294
  0.000   0.000  -0.000  -0.000   0.001   0.000   0.000  -0.000   0.044   0.000  -0.000  -0.000  -0.000  -0.022   0.000   0.000
  0.000   0.000   0.000  -0.000   0.001   0.000  -0.000  -0.000   0.007   0.000  -0.000  -0.000   0.000  -0.005  -0.000   0.000


------------------------ aborting loop because EDIFF is reached ----------------------------------------


 


 total charge     
 
# of ion       s       p       d       tot
------------------------------------------
    1        0.284   6.340   5.852  12.476
    2        0.284   6.340   5.854  12.478
    3        0.284   6.340   5.862  12.486
    4        0.284   6.340   5.852  12.475
    5        0.284   6.340   5.854  12.478
    6        0.284   6.340   5.865  12.489
    7        0.284   6.340   5.851  12.474
    8        0.284   6.340   5.853  12.477
    9        0.283   6.340   5.854  12.477
   10        0.283   6.340   5.868  12.492
   11        0.283   6.340   5.865  12.489
   12        0.283   6.340   5.857  12.480
   13        1.568   3.417   0.000   4.984
   14        1.568   3.416   0.000   4.984
   15        1.568   3.417   0.000   4.984
   16        1.568   3.418   0.000   4.985
   17        1.568   3.418   0.000   4.985
   18        1.568   3.417   0.000   4.984
   19        1.567   3.404   0.000   4.971
   20        1.567   3.404   0.000   4.971
   21        1.567   3.405   0.000   4.972
   22        1.567   3.405   0.000   4.972
   23        1.567   3.405   0.000   4.972
   24        1.567   3.405   0.000   4.972
   25        1.569   3.418   0.000   4.986
   26        1.569   3.417   0.000   4.986
   27        1.569   3.419   0.000   4.987
   28        1.568   3.420   0.000   4.988
   29        1.569   3.419   0.000   4.988
   30        1.568   3.419   0.000   4.988
--------------------------------------------------
tot         31.619 137.521  70.288 239.428
 


 magnetization (x)
 
# of ion       s       p       d       tot
------------------------------------------
    1        0.024   0.036   3.140   3.200
    2        0.024   0.036   3.137   3.198
    3        0.025   0.036   3.134   3.195
    4        0.025   0.036   3.140   3.200
    5        0.025   0.036   3.140   3.200
    6        0.025   0.036   3.132   3.192
    7        0.024   0.036   3.124   3.185
    8        0.024   0.036   3.121   3.182
    9        0.025   0.036   3.122   3.182
   10        0.025   0.036   3.116   3.176
   11        0.025   0.036   3.118   3.179
   12        0.025   0.036   3.122   3.183
   13        0.020   0.139   0.000   0.159
   14        0.020   0.139   0.000   0.159
   15        0.020   0.139   0.000   0.159
   16        0.020   0.140   0.000   0.160
   17        0.020   0.140   0.000   0.161
   18        0.020   0.139   0.000   0.159
   19        0.021   0.143   0.000   0.165
   20        0.021   0.143   0.000   0.164
   21        0.021   0.144   0.000   0.165
   22        0.021   0.144   0.000   0.165
   23        0.021   0.144   0.000   0.165
   24        0.021   0.144   0.000   0.165
   25        0.020   0.135   0.000   0.156
   26        0.020   0.135   0.000   0.155
   27        0.020   0.136   0.000   0.157
   28        0.020   0.137   0.000   0.158
   29        0.020   0.137   0.000   0.157
   30        0.020   0.137   0.000   0.157
--------------------------------------------------
tot          0.668   2.946  37.545  41.159
 
    CHARGE:  cpu time    0.5716: real time    0.5731
    FORLOC:  cpu time    0.0111: real time    0.0111
    FORNL :  cpu time    4.1420: real time    4.1524
    STRESS:  cpu time   12.8199: real time   12.8523
    FORCOR:  cpu time    0.1075: real time    0.1077
    FORHAR:  cpu time    0.0193: real time    0.0194
    MIXING:  cpu time    0.0044: real time    0.0044
    OFIELD:  cpu time    0.0001: real time    0.0001

  FORCE on cell =-STRESS in cart. coord.  units (eV):
  Direction    XX          YY          ZZ          XY          YZ          ZX
  --------------------------------------------------------------------------------------
  Alpha Z  1362.55286  1362.55286  1362.55286
  Ewald   -8201.75422 -8201.75360 -9109.63806     0.00000     0.00002    -0.00000
  Hartree  3503.90840  3503.90825  2999.89733    -0.00000     0.00001    -0.00000
  E(xc)   -1615.77599 -1615.77605 -1617.34100    -0.00004    -0.00000     0.00000
  Local    -165.24948  -165.24999  1230.64191    -0.00071    -0.00004     0.00000
  n-local  -743.65205  -742.54256  -745.15860    -4.17361     0.49424     0.11757
  augment  1844.82862  1844.82899  1846.72398     0.00059    -0.00000     0.00000
  Kinetic  4006.86467  4008.96427  4024.71336     7.64680    -1.98500    -5.05011
  Fock        0.00000     0.00000     0.00000     0.00000     0.00000     0.00000
  -------------------------------------------------------------------------------------
  Total      -6.67251    -6.67250    -7.60822     0.00000     0.00000    -0.00000
  in kB     -35.39112   -35.39111   -40.35415     0.00000     0.00000    -0.00000
  external pressure =      -37.05 kB  Pullay stress =        0.00 kB


 VOLUME and BASIS-vectors are now :
 -----------------------------------------------------------------------------
  energy-cutoff  :      660.00
  volume of cell :      302.07
      direct lattice vectors                 reciprocal lattice vectors
     5.035100000  0.000000000  0.000000000     0.198605787  0.114665118  0.000000000
    -2.517550000  4.360524000  0.000000000     0.000000000  0.229330236  0.000000000
     0.000000000  0.000000000 13.758100000     0.000000000  0.000000000  0.072684455

  length of vectors
     5.035100000  5.035099558 13.758100000     0.229330216  0.229330236  0.072684455


 FORCES acting on ions
    electron-ion (+dipol)            ewald-force                    non-local-force                 convergence-correction
 -----------------------------------------------------------------------------------------------
   0.156E-03 0.366E-03 -.126E+03   -.101E-02 0.523E-03 0.128E+03   -.113E-16 -.347E-17 -.289E+01   -.807E-08 0.476E-08 -.290E-04
   -.402E-03 0.579E-03 0.126E+03   0.101E-02 -.523E-03 -.128E+03   0.434E-17 0.477E-17 0.289E+01   0.105E-07 -.524E-08 0.290E-04
   -.134E-03 0.534E-03 -.126E+03   0.314E-02 -.187E-02 0.128E+03   -.997E-17 -.477E-17 -.289E+01   0.189E-06 -.110E-06 -.211E-04
   -.327E-03 0.645E-03 -.126E+03   -.220E-02 0.121E-02 0.128E+03   -.694E-17 -.217E-17 -.289E+01   -.179E-06 0.103E-06 -.184E-04
   0.810E-04 0.300E-03 0.126E+03   0.220E-02 -.121E-02 -.128E+03   0.564E-17 -.217E-17 0.289E+01   0.181E-06 -.103E-06 0.184E-04
   -.112E-03 0.411E-03 0.126E+03   -.314E-02 0.187E-02 -.128E+03   0.564E-17 -.173E-17 0.289E+01   -.187E-06 0.109E-06 0.211E-04
   0.566E-03 -.105E-02 0.126E+03   0.964E-03 -.523E-03 -.128E+03   0.147E-16 -.304E-17 0.289E+01   0.120E-07 -.820E-08 0.290E-04
   0.104E-02 -.127E-02 -.126E+03   -.964E-03 0.523E-03 0.128E+03   -.564E-17 -.390E-17 -.289E+01   -.633E-08 0.236E-08 -.290E-04
   0.105E-02 -.133E-02 0.126E+03   0.215E-02 -.121E-02 -.128E+03   0.542E-17 0.434E-18 0.289E+01   0.182E-06 -.107E-06 0.184E-04
   0.749E-03 -.110E-02 -.126E+03   0.319E-02 -.187E-02 0.128E+03   -.542E-17 -.607E-17 -.289E+01   0.192E-06 -.111E-06 -.211E-04
   0.857E-03 -.121E-02 0.126E+03   -.319E-02 0.187E-02 -.128E+03   0.130E-16 0.867E-18 0.289E+01   -.186E-06 0.105E-06 0.211E-04
   0.557E-03 -.989E-03 -.126E+03   -.215E-02 0.121E-02 0.128E+03   -.158E-16 0.434E-18 -.289E+01   -.176E-06 0.101E-06 -.184E-04
   -.424E+02 -.134E-02 0.215E-03   0.418E+02 0.106E-02 -.470E-03   0.680E+00 0.115E-17 -.249E-17   -.260E-04 0.437E-07 -.434E-08
   0.424E+02 -.865E-04 -.336E-03   -.418E+02 -.106E-02 0.470E-03   -.680E+00 -.976E-18 -.108E-17   0.260E-04 -.478E-07 0.208E-08
   -.424E+02 -.319E-02 -.584E-02   0.418E+02 0.570E-03 -.997E-03   0.680E+00 -.266E-17 -.195E-17   -.259E-04 -.397E-07 -.240E-05
   -.424E+02 0.239E-02 0.544E-02   0.418E+02 -.163E-02 0.147E-02   0.680E+00 -.363E-17 -.293E-17   -.259E-04 -.987E-08 0.240E-05
   0.424E+02 -.382E-02 -.556E-02   -.418E+02 0.163E-02 -.147E-02   -.680E+00 -.312E-18 -.173E-17   0.259E-04 0.579E-08 -.241E-05
   0.424E+02 0.177E-02 0.572E-02   -.418E+02 -.570E-03 0.997E-03   -.680E+00 -.211E-17 0.108E-17   0.259E-04 0.356E-07 0.240E-05
   0.212E+02 -.367E+02 -.307E-03   -.209E+02 0.362E+02 0.438E-03   -.340E+00 0.589E+00 0.520E-17   0.130E-04 -.225E-04 0.207E-08
   -.212E+02 0.367E+02 0.194E-03   0.209E+02 -.362E+02 -.438E-03   0.340E+00 -.589E+00 0.434E-17   -.130E-04 0.225E-04 -.425E-08
   0.212E+02 -.367E+02 -.553E-02   -.209E+02 0.362E+02 -.150E-02   -.340E+00 0.589E+00 0.173E-17   0.129E-04 -.224E-04 -.241E-05
   0.212E+02 -.367E+02 0.575E-02   -.209E+02 0.362E+02 0.964E-03   -.340E+00 0.589E+00 0.173E-17   0.129E-04 -.225E-04 0.240E-05
   -.212E+02 0.367E+02 -.586E-02   0.209E+02 -.362E+02 -.964E-03   0.340E+00 -.589E+00 -.260E-17   -.129E-04 0.225E-04 -.240E-05
   -.212E+02 0.367E+02 0.542E-02   0.209E+02 -.362E+02 0.150E-02   0.340E+00 -.589E+00 0.347E-17   -.129E-04 0.224E-04 0.240E-05
   0.212E+02 0.367E+02 0.939E-04   -.209E+02 -.362E+02 0.322E-04   -.340E+00 -.589E+00 -.434E-17   0.129E-04 0.224E-04 0.221E-08
   -.212E+02 -.367E+02 0.144E-03   0.209E+02 0.362E+02 -.322E-04   0.340E+00 0.589E+00 -.434E-18   -.129E-04 -.224E-04 0.211E-08
   0.212E+02 0.367E+02 -.409E-02   -.209E+02 -.362E+02 -.303E-02   -.340E+00 -.589E+00 -.390E-17   0.130E-04 0.224E-04 -.241E-05
   -.212E+02 -.367E+02 -.404E-02   0.209E+02 0.362E+02 -.310E-02   0.340E+00 0.589E+00 0.000E+00   -.129E-04 -.225E-04 -.241E-05
   0.212E+02 0.367E+02 0.427E-02   -.209E+02 -.362E+02 0.310E-02   -.340E+00 -.589E+00 -.824E-17   0.129E-04 0.225E-04 0.241E-05
   -.212E+02 -.367E+02 0.432E-02   0.209E+02 0.362E+02 0.303E-02   0.340E+00 0.589E+00 0.304E-17   -.130E-04 -.225E-04 0.241E-05
 -----------------------------------------------------------------------------------------------
   0.150E-01 -.165E-01 -.112E-04   -.995E-13 -.995E-13 -.192E-12   -.278E-15 0.111E-15 -.911E-17   0.448E-07 -.394E-07 0.444E-09
 
 
 POSITION                                       TOTAL-FORCE (eV/Angst)
 -----------------------------------------------------------------------------------
      0.00000      0.00000      4.88853        -0.000000     -0.000000     -0.925560
      0.00000      0.00000      8.86957        -0.000000      0.000000      0.925560
     -0.00000      2.90702      0.30250        -0.000000     -0.000000     -0.925560
      2.51755      1.45351      9.47456        -0.000000     -0.000000     -0.925560
     -0.00000      2.90702      4.28354        -0.000000      0.000000      0.925560
      2.51755      1.45351     13.45560        -0.000000      0.000000      0.925560
      0.00000      0.00000      1.99052        -0.000000      0.000000      0.925560
      0.00000      0.00000     11.76758        -0.000000     -0.000000     -0.925560
     -0.00000      2.90702     11.16259        -0.000000      0.000000      0.925560
     -0.00000      2.90702      7.18155        -0.000000     -0.000000     -0.925560
      2.51755      1.45351      6.57655        -0.000000      0.000000      0.925560
      2.51755      1.45351      2.59551        -0.000000     -0.000000     -0.925560
      1.54165      0.00000      3.43953         0.089197      0.000000     -0.000000
      3.49345      0.00000     10.31858        -0.089197     -0.000000     -0.000000
      1.54164      2.90702     12.61160         0.089197     -0.000000     -0.000000
      4.05920      1.45351      8.02555         0.089197      0.000000     -0.000000
     -1.54165      2.90702      5.73255        -0.089197      0.000000     -0.000000
      0.97591      1.45351      1.14650        -0.089197      0.000000     -0.000000
     -0.77082      1.33511      3.43953        -0.044599      0.077247     -0.000000
     -1.74673      3.02542     10.31858         0.044599     -0.077247     -0.000000
     -0.77083      4.24212     12.61160        -0.044599      0.077247     -0.000000
      1.74673      2.78861      8.02555        -0.044599      0.077247      0.000000
      0.77082      1.57191      5.73255         0.044599     -0.077247     -0.000000
      3.28838      0.11840      1.14650         0.044599     -0.077247      0.000000
      1.74673      3.02542      3.43953        -0.044599     -0.077247     -0.000000
      0.77082      1.33511     10.31858         0.044599      0.077247     -0.000000
     -0.77083      1.57191     12.61160        -0.044599     -0.077247     -0.000000
      0.77082      4.24212      5.73255         0.044599      0.077247     -0.000000
      1.74673      0.11840      8.02555        -0.044599     -0.077247      0.000000
      3.28838      2.78861      1.14650         0.044599      0.077247      0.000000
 -----------------------------------------------------------------------------------
    total drift:                                0.014963     -0.016517     -0.000011


--------------------------------------------------------------------------------------------------------



  FREE ENERGIE OF THE ION-ELECTRON SYSTEM (eV)
  ---------------------------------------------------
  free  energy   TOTEN  =      -221.42584088 eV

  energy  without entropy=     -221.42584088  energy(sigma->0) =     -221.42584088
 


--------------------------------------------------------------------------------------------------------


    POTLOK:  cpu time    0.1137: real time    0.1139


--------------------------------------------------------------------------------------------------------


     LOOP+:  cpu time  441.2530: real time  442.3945
    4ORBIT:  cpu time    0.0000: real time    0.0000
 


 total charge     
 
# of ion       s       p       d       tot
------------------------------------------
    1        0.284   6.340   5.852  12.476
    2        0.284   6.340   5.854  12.478
    3        0.284   6.340   5.862  12.486
    4        0.284   6.340   5.852  12.475
    5        0.284   6.340   5.854  12.478
    6        0.284   6.340   5.865  12.489
    7        0.284   6.340   5.851  12.474
    8        0.284   6.340   5.853  12.477
    9        0.283   6.340   5.854  12.477
   10        0.283   6.340   5.868  12.492
   11        0.283   6.340   5.865  12.489
   12        0.283   6.340   5.857  12.480
   13        1.568   3.417   0.000   4.984
   14        1.568   3.416   0.000   4.984
   15        1.568   3.417   0.000   4.984
   16        1.568   3.418   0.000   4.985
   17        1.568   3.418   0.000   4.985
   18        1.568   3.417   0.000   4.984
   19        1.567   3.404   0.000   4.971
   20        1.567   3.404   0.000   4.971
   21        1.567   3.405   0.000   4.972
   22        1.567   3.405   0.000   4.972
   23        1.567   3.405   0.000   4.972
   24        1.567   3.405   0.000   4.972
   25        1.569   3.418   0.000   4.986
   26        1.569   3.417   0.000   4.986
   27        1.569   3.419   0.000   4.987
   28        1.568   3.420   0.000   4.988
   29        1.569   3.419   0.000   4.988
   30        1.568   3.419   0.000   4.988
--------------------------------------------------
tot         31.619 137.521  70.288 239.428
 


 magnetization (x)
 
# of ion       s       p       d       tot
------------------------------------------
    1        0.024   0.036   3.140   3.200
    2        0.024   0.036   3.137   3.198
    3        0.025   0.036   3.134   3.195
    4        0.025   0.036   3.140   3.200
    5        0.025   0.036   3.140   3.200
    6        0.025   0.036   3.132   3.192
    7        0.024   0.036   3.124   3.185
    8        0.024   0.036   3.121   3.182
    9        0.025   0.036   3.122   3.182
   10        0.025   0.036   3.116   3.176
   11        0.025   0.036   3.118   3.179
   12        0.025   0.036   3.122   3.183
   13        0.020   0.139   0.000   0.159
   14        0.020   0.139   0.000   0.159
   15        0.020   0.139   0.000   0.159
   16        0.020   0.140   0.000   0.160
   17        0.020   0.140   0.000   0.161
   18        0.020   0.139   0.000   0.159
   19        0.021   0.143   0.000   0.165
   20        0.021   0.143   0.000   0.164
   21        0.021   0.144   0.000   0.165
   22        0.021   0.144   0.000   0.165
   23        0.021   0.144   0.000   0.165
   24        0.021   0.144   0.000   0.165
   25        0.020   0.135   0.000   0.156
   26        0.020   0.135   0.000   0.155
   27        0.020   0.136   0.000   0.157
   28        0.020   0.137   0.000   0.158
   29        0.020   0.137   0.000   0.157
   30        0.020   0.137   0.000   0.157
--------------------------------------------------
tot          0.668   2.946  37.545  41.159
 
 BZINTS: Fermi energy:  6.182646;276.000000 electrons
         Band energy:***********;  BLOECHL correction: -0.033011

 total amount of memory used by VASP MPI-rank0   101271. kBytes
=======================================================================

   base      :      30000. kBytes
   nonlr-proj:       9931. kBytes
   fftplans  :       4270. kBytes
   grid      :      10944. kBytes
   one-center:        248. kBytes
   wavefun   :      45878. kBytes
 
  
  
 General timing and accounting informations for this job:
 ========================================================
  
                  Total CPU time used (sec):      449.460
                            User time (sec):      448.203
                          System time (sec):        1.258
                         Elapsed time (sec):      450.731
  
                   Maximum memory used (kb):      144932.
                   Average memory used (kb):           0.
  
                          Minor page faults:        74582
                          Major page faults:            0
                 Voluntary context switches:          315
