       N       E                     dE             d eps       ncg     rms          rms(c)
DAV:   1     0.162816599501E+03    0.16282E+03   -0.11343E+04  8392   0.300E+03
DAV:   2    -0.204522289171E+01   -0.16486E+03   -0.14341E+03  7592   0.316E+02
DAV:   3    -0.195515214462E+02   -0.17506E+02   -0.16816E+02  7652   0.110E+02
DAV:   4    -0.204612576377E+02   -0.90974E+00   -0.88317E+00 10672   0.223E+01
DAV:   5    -0.204975750206E+02   -0.36317E-01   -0.36032E-01  9520   0.347E+00    0.185E+01
DAV:   6    -0.257337931840E+02   -0.52362E+01   -0.10094E+02 10276   0.109E+02    0.275E+01
DAV:   7    -0.209033735769E+02    0.48304E+01   -0.23880E+01  8712   0.832E+01    0.101E+01
DAV:   8    -0.209345116324E+02   -0.31138E-01   -0.13331E+00  9808   0.101E+01    0.487E+00
DAV:   9    -0.209201052556E+02    0.14406E-01   -0.16486E+00 10752   0.112E+01    0.266E+00
DAV:  10    -0.208629344893E+02    0.57171E-01   -0.22365E-01  9656   0.430E+00    0.970E-01
DAV:  11    -0.208589884318E+02    0.39461E-02   -0.14308E-02  9560   0.119E+00    0.800E-01
DAV:  12    -0.208587456904E+02    0.24274E-03   -0.24666E-02 10276   0.147E+00    0.361E-01
DAV:  13    -0.208590698044E+02   -0.32411E-03   -0.20345E-03  9728   0.292E-01    0.201E-01
DAV:  14    -0.208591705422E+02   -0.10074E-03   -0.14963E-03 10236   0.372E-01    0.815E-02
DAV:  15    -0.208591086354E+02    0.61907E-04   -0.19474E-04  9792   0.116E-01    0.428E-02
DAV:  16    -0.208591275697E+02   -0.18934E-04   -0.22112E-05 10200   0.393E-02    0.139E-02
DAV:  17    -0.208591288822E+02   -0.13126E-05   -0.29217E-06 11300   0.123E-02    0.518E-03
DAV:  18    -0.208591291265E+02   -0.24423E-06   -0.64561E-07  8672   0.578E-03    0.502E-03
DAV:  19    -0.208591276040E+02    0.15225E-05   -0.18032E-07  6376   0.466E-03    0.182E-03
DAV:  20    -0.208591289073E+02   -0.13033E-05   -0.75281E-08  4484   0.293E-03    0.439E-04
DAV:  21    -0.208591286700E+02    0.23726E-06   -0.32595E-08  3904   0.169E-03    0.280E-04
DAV:  22    -0.208591285683E+02    0.10168E-06   -0.13316E-08  3732   0.107E-03    0.233E-04
DAV:  23    -0.208591284843E+02    0.84029E-07   -0.61724E-09  3652   0.896E-04
   1 F= -.20859128E+02 E0= -.20859128E+02  d E =0.000000E+00  mag=     6.9930
