=========================================
SLURM_JOB_ID = 51754171
SLURM_JOB_NODELIST = lnode47
SLURM_GPUS = 
SLURM_CPUS_ON_NODE = 24
SLURM_JOB_PARTITION = lenovo
SLURM_TASK_PID = 1839060
CUDA_VISIBLE_DEVICES = 
==========================================
 running on   24 total cores
 distrk:  each k-point on   24 cores,    1 groups
 distr:  one band on    4 cores,    6 groups
 using from now: INCAR     
 vasp.5.4.4.18Apr17-6-g9f103f2a35 (build Apr 28 2018 00:24:27) complex          
  
 POSCAR found type information on POSCAR  Fe
 POSCAR found :  1 types and       2 ions
 scaLAPACK will be used

 ----------------------------------------------------------------------------- 
|                                                                             |
|  ADVICE TO THIS USER RUNNING 'VASP/VAMP'   (HEAR YOUR MASTER'S VOICE ...):  |
|                                                                             |
|      You have a (more or less) 'small supercell' and for smaller cells      |
|      it is recommended  to use the reciprocal-space projection scheme!      |
|      The real space optimization is not  efficient for small cells and it   |
|      is also less accurate ...                                              |
|      Therefore set LREAL=.FALSE. in the  INCAR file                         |
|                                                                             |
 ----------------------------------------------------------------------------- 

 LDA part: xc-table for Pade appr. of Perdew
 POSCAR, INCAR and KPOINTS ok, starting setup
 FFT: planning ...
 WAVECAR not read
 entering main loop
       N       E                     dE             d eps       ncg     rms          rms(c)
DAV:   1     0.226447582999E+03    0.22645E+03   -0.19343E+04  3480   0.205E+03
DAV:   2    -0.945728380072E+01   -0.23590E+03   -0.22597E+03  3456   0.414E+02
DAV:   3    -0.162182438190E+02   -0.67610E+01   -0.67484E+01  3744   0.783E+01
DAV:   4    -0.162739967662E+02   -0.55753E-01   -0.55756E-01  3888   0.676E+00
DAV:   5    -0.162750294081E+02   -0.10326E-02   -0.10327E-02  3720   0.851E-01    0.250E+01
DAV:   6    -0.164565845610E+02   -0.18156E+00   -0.74937E+00  3420   0.397E+01    0.691E+00
DAV:   7    -0.165130747454E+02   -0.56490E-01   -0.61519E-01  3396   0.974E+00    0.431E+00
DAV:   8    -0.165231257453E+02   -0.10051E-01   -0.15106E-02  3756   0.147E+00    0.137E+00
DAV:   9    -0.165149497606E+02    0.81760E-02   -0.51668E-03  3660   0.877E-01    0.337E-01
DAV:  10    -0.165147794507E+02    0.17031E-03   -0.22507E-03  3444   0.614E-01    0.443E-02
DAV:  11    -0.165148387594E+02   -0.59309E-04   -0.49358E-05  3612   0.655E-02    0.243E-02
DAV:  12    -0.165148470671E+02   -0.83077E-05   -0.49899E-06  3780   0.227E-02    0.960E-03
DAV:  13    -0.165148402983E+02    0.67688E-05   -0.13435E-06  3516   0.116E-02    0.256E-03
DAV:  14    -0.165148386690E+02    0.16293E-05   -0.16056E-07  2820   0.337E-03    0.624E-04
DAV:  15    -0.165148386449E+02    0.24108E-07   -0.11653E-08  1752   0.112E-03
   1 F= -.16514839E+02 E0= -.16514839E+02  d E =0.000000E+00  mag=     4.4054
