=========================================
SLURM_JOB_ID = 51752957
SLURM_JOB_NODELIST = lnode53
SLURM_GPUS = 
SLURM_CPUS_ON_NODE = 24
SLURM_JOB_PARTITION = lenovo
SLURM_TASK_PID = 544535
CUDA_VISIBLE_DEVICES = 
==========================================
 running on   24 total cores
 distrk:  each k-point on   24 cores,    1 groups
 distr:  one band on    4 cores,    6 groups
 using from now: INCAR     
 vasp.5.4.4.18Apr17-6-g9f103f2a35 (build Apr 28 2018 00:24:27) complex          
  
 POSCAR found type information on POSCAR  Fe
 POSCAR found :  1 types and       2 ions
 scaLAPACK will be used

 ----------------------------------------------------------------------------- 
|                                                                             |
|  ADVICE TO THIS USER RUNNING 'VASP/VAMP'   (HEAR YOUR MASTER'S VOICE ...):  |
|                                                                             |
|      You have a (more or less) 'small supercell' and for smaller cells      |
|      it is recommended  to use the reciprocal-space projection scheme!      |
|      The real space optimization is not  efficient for small cells and it   |
|      is also less accurate ...                                              |
|      Therefore set LREAL=.FALSE. in the  INCAR file                         |
|                                                                             |
 ----------------------------------------------------------------------------- 

 LDA part: xc-table for Pade appr. of Perdew
 POSCAR, INCAR and KPOINTS ok, starting setup
 FFT: planning ...
 WAVECAR not read
 entering main loop
       N       E                     dE             d eps       ncg     rms          rms(c)
DAV:   1     0.251401540619E+03    0.25140E+03   -0.22003E+04  3420   0.239E+03
DAV:   2    -0.877486156861E+01   -0.26018E+03   -0.24928E+03  3468   0.456E+02
DAV:   3    -0.162089765240E+02   -0.74341E+01   -0.74190E+01  3576   0.843E+01
DAV:   4    -0.162732135330E+02   -0.64237E-01   -0.64242E-01  4056   0.747E+00
DAV:   5    -0.162743966097E+02   -0.11831E-02   -0.11831E-02  3552   0.948E-01    0.250E+01
DAV:   6    -0.164588085841E+02   -0.18441E+00   -0.74922E+00  3420   0.398E+01    0.691E+00
DAV:   7    -0.165133531212E+02   -0.54545E-01   -0.61475E-01  3408   0.977E+00    0.431E+00
DAV:   8    -0.165230683618E+02   -0.97152E-02   -0.15145E-02  3744   0.148E+00    0.137E+00
DAV:   9    -0.165147865323E+02    0.82818E-02   -0.52582E-03  3624   0.888E-01    0.337E-01
DAV:  10    -0.165145876713E+02    0.19886E-03   -0.22422E-03  3456   0.615E-01    0.442E-02
DAV:  11    -0.165146476909E+02   -0.60020E-04   -0.49841E-05  3576   0.668E-02    0.242E-02
DAV:  12    -0.165146558498E+02   -0.81590E-05   -0.50399E-06  3912   0.229E-02    0.956E-03
DAV:  13    -0.165146491100E+02    0.67398E-05   -0.12981E-06  3504   0.113E-02    0.249E-03
DAV:  14    -0.165146475474E+02    0.15627E-05   -0.15588E-07  2736   0.330E-03    0.657E-04
DAV:  15    -0.165146475630E+02   -0.15592E-07   -0.11228E-08  1704   0.110E-03
   1 F= -.16514648E+02 E0= -.16514648E+02  d E =0.000000E+00  mag=     4.4054
