 vasp.5.4.4.18Apr17-6-g9f103f2a35 (build Apr 28 2018 00:24:27) complex          
  
 executed on             LinuxIFC date 2021.09.07  01:09:58
 running on   24 total cores
 distrk:  each k-point on   24 cores,    1 groups
 distr:  one band on NCORES_PER_BAND=   4 cores,    6 groups


--------------------------------------------------------------------------------------------------------


 INCAR:
 POTCAR:    PAW_PBE Fe_pv 02Aug2007               
 POTCAR:    PAW_PBE Fe_pv 02Aug2007               
   VRHFIN =Fe:  3pd7s1                                                          
   LEXCH  = PE                                                                  
   EATOM  =  2457.4239 eV,  180.6156 Ry                                         
                                                                                
   TITEL  = PAW_PBE Fe_pv 02Aug2007                                             
   LULTRA =        F    use ultrasoft PP ?                                      
   IUNSCR =        1    unscreen: 0-lin 1-nonlin 2-no                           
   RPACOR =    1.750    partial core radius                                     
   POMASS =   55.847; ZVAL   =   14.000    mass and valenz                      
   RCORE  =    2.200    outmost cutoff radius                                   
   RWIGS  =    2.200; RWIGS  =    1.164    wigner-seitz radius (au A)           
   ENMAX  =  293.238; ENMIN  =  219.928 eV                                      
   ICORE  =        3    local potential                                         
   LCOR   =        T    correct aug charges                                     
   LPAW   =        T    paw PP                                                  
   EAUG   =  578.342                                                            
   DEXC   =    0.000                                                            
   RMAX   =    2.249    core radius for proj-oper                               
   RAUG   =    1.300    factor for augmentation sphere                          
   RDEP   =    2.296    radius for radial grids                                 
   RDEPT  =    1.766    core radius for aug-charge                              
                                                                                
   Atomic configuration                                                         
    8 entries                                                                   
     n  l   j            E        occ.                                          
     1  0  0.50     -6993.8440   2.0000                                         
     2  0  0.50      -814.6047   2.0000                                         
     2  1  1.50      -693.3689   6.0000                                         
     3  0  0.50       -89.4732   2.0000                                         
     3  1  1.50       -55.6373   6.0000                                         
     3  2  2.50        -3.8151   7.0000                                         
     4  0  0.50        -4.2551   1.0000                                         
     4  3  2.50        -1.3606   0.0000                                         
   Description                                                                  
     l       E           TYP  RCUT    TYP  RCUT                                 
     1    -55.6372668     23  2.000                                             
     1     -5.4423304     23  2.000                                             
     2     -3.8151096     23  2.200                                             
     2     -5.1756922     23  2.200                                             
     0     -4.2550951     23  2.200                                             
     0     27.2116520     23  2.200                                             
     3     -1.3605826     23  2.200                                             
  local pseudopotential read in
  partial core-charges read in
  partial kinetic energy density read in
  atomic valenz-charges read in
  non local Contribution for L=           1  read in
    real space projection operators read in
  non local Contribution for L=           1  read in
    real space projection operators read in
  non local Contribution for L=           2  read in
    real space projection operators read in
  non local Contribution for L=           2  read in
    real space projection operators read in
  non local Contribution for L=           0  read in
    real space projection operators read in
  non local Contribution for L=           0  read in
    real space projection operators read in
    PAW grid and wavefunctions read in
 
   number of l-projection  operators is LMAX  =           6
   number of lm-projection operators is LMMAX =          18
 

 ----------------------------------------------------------------------------- 
|                                                                             |
|  ADVICE TO THIS USER RUNNING 'VASP/VAMP'   (HEAR YOUR MASTER'S VOICE ...):  |
|                                                                             |
|      You have a (more or less) 'small supercell' and for smaller cells      |
|      it is recommended  to use the reciprocal-space projection scheme!      |
|      The real space optimization is not  efficient for small cells and it   |
|      is also less accurate ...                                              |
|      Therefore set LREAL=.FALSE. in the  INCAR file                         |
|                                                                             |
 ----------------------------------------------------------------------------- 

 Optimization of the real space projectors (new method)

 maximal supplied QI-value         = 17.01
 optimisation between [QCUT,QGAM] = [ 14.29, 28.57] = [ 57.15,228.61] Ry 
 Optimized for a Real-space Cutoff    1.25 Angstroem

   l    n(q)    QCUT    max X(q) W(low)/X(q) W(high)/X(q)  e(spline) 
   1     10    14.286     4.267    0.13E-03    0.22E-03    0.67E-06
   1     10    14.286     5.750    0.18E-03    0.33E-03    0.10E-05
   2     10    14.286    53.656    0.68E-04    0.12E-03    0.45E-06
   2     10    14.286    49.521    0.70E-04    0.12E-03    0.47E-06
   0     11    14.286    31.246    0.25E-04    0.53E-04    0.50E-06
   0     11    14.286    12.201    0.19E-04    0.43E-04    0.41E-06
  PAW_PBE Fe_pv 02Aug2007               :
 energy of atom  1       EATOM=-2457.4239
 kinetic energy error for atom=    0.0012 (will be added to EATOM!!)
 
 
 POSCAR: Fe2                                     
  positions in direct lattice
  No initial velocities read in
 exchange correlation table for  LEXCH =        8
   RHO(1)=    0.500       N(1)  =     2000
   RHO(2)=  100.500       N(2)  =     4000
 


--------------------------------------------------------------------------------------------------------


 ion  position               nearest neighbor table
   1  0.000  0.000  0.000-   2 2.46   2 2.46   2 2.46   2 2.46   2 2.46   2 2.46   2 2.46   2 2.46

   2  0.500  0.500  0.500-   1 2.46   1 2.46   1 2.46   1 2.46   1 2.46   1 2.46   1 2.46   1 2.46

 
  LATTYP: Found a simple cubic cell.
 ALAT       =     2.8400520000
  
  Lattice vectors:
  
 A1 = (   2.8400520000,   0.0000000000,   0.0000000000)
 A2 = (   0.0000000000,   2.8400520000,   0.0000000000)
 A3 = (   0.0000000000,   0.0000000000,   2.8400520000)


Analysis of symmetry for initial positions (statically):
=====================================================================
 Subroutine PRICEL returns following result:
 
  LATTYP: Found a body centered cubic cell.
 ALAT       =     2.8400520000
  
  Lattice vectors:
  
 A1 = (   1.4200260000,   1.4200260000,   1.4200260000)
 A2 = (   1.4200260000,  -1.4200260000,  -1.4200260000)
 A3 = (  -1.4200260000,   1.4200260000,  -1.4200260000)
 
   2 primitive cells build up your supercell.
 

 Routine SETGRP: Setting up the symmetry group for a 
 simple cubic supercell.


 Subroutine GETGRP returns: Found 48 space group operations
 (whereof 48 operations were pure point group operations)
 out of a pool of 48 trial point group operations.


The static configuration has the point symmetry O_h .


Analysis of symmetry for dynamics (positions and initial velocities):
=====================================================================
 Subroutine PRICEL returns following result:
 
  LATTYP: Found a body centered cubic cell.
 ALAT       =     2.8400520000
  
  Lattice vectors:
  
 A1 = (   1.4200260000,   1.4200260000,   1.4200260000)
 A2 = (   1.4200260000,  -1.4200260000,  -1.4200260000)
 A3 = (  -1.4200260000,   1.4200260000,  -1.4200260000)
 
   2 primitive cells build up your supercell.
 

 Routine SETGRP: Setting up the symmetry group for a 
 simple cubic supercell.


 Subroutine GETGRP returns: Found 48 space group operations
 (whereof 48 operations were pure point group operations)
 out of a pool of 48 trial point group operations.


The dynamic configuration has the point symmetry O_h .


Analysis of structural, dynamic, and magnetic symmetry:
=====================================================================
 Subroutine PRICEL returns following result:
 
  LATTYP: Found a body centered cubic cell.
 ALAT       =     2.8400520000
  
  Lattice vectors:
  
 A1 = (   1.4200260000,   1.4200260000,   1.4200260000)
 A2 = (   1.4200260000,  -1.4200260000,  -1.4200260000)
 A3 = (  -1.4200260000,   1.4200260000,  -1.4200260000)
 
   2 primitive cells build up your supercell.
 

 Routine SETGRP: Setting up the symmetry group for a 
 simple cubic supercell.


 Subroutine GETGRP returns: Found 48 space group operations
 (whereof 48 operations were pure point group operations)
 out of a pool of 48 trial point group operations.


The magnetic configuration has the point symmetry O_h .


 Subroutine INISYM returns: Found 48 space group operations
 (whereof 48 operations are pure point group operations),
 and found     2 'primitive' translations

 
 
 KPOINTS: pymatgen with grid density = 2166 / numb

Automatic generation of k-mesh.
Space group operators:
 irot       det(A)        alpha          n_x          n_y          n_z        tau_x        tau_y        tau_z
    1     1.000000     0.000000     1.000000     0.000000     0.000000     0.000000     0.000000     0.000000
    2    -1.000000     0.000000     1.000000     0.000000     0.000000     0.000000     0.000000     0.000000
    3     1.000000   120.000000    -0.577350    -0.577350    -0.577350     0.000000     0.000000     0.000000
    4    -1.000000   120.000000    -0.577350    -0.577350    -0.577350     0.000000     0.000000     0.000000
    5     1.000000   120.000000     0.577350     0.577350     0.577350     0.000000     0.000000     0.000000
    6    -1.000000   120.000000     0.577350     0.577350     0.577350     0.000000     0.000000     0.000000
    7     1.000000    90.000000     0.000000     0.000000    -1.000000     0.000000     0.000000     0.000000
    8    -1.000000    90.000000     0.000000     0.000000    -1.000000     0.000000     0.000000     0.000000
    9     1.000000   180.000000     0.000000     0.707107     0.707107     0.000000     0.000000     0.000000
   10    -1.000000   180.000000     0.000000     0.707107     0.707107     0.000000     0.000000     0.000000
   11     1.000000    90.000000     0.000000     1.000000     0.000000     0.000000     0.000000     0.000000
   12    -1.000000    90.000000     0.000000     1.000000     0.000000     0.000000     0.000000     0.000000
   13     1.000000   180.000000     0.000000     0.000000     1.000000     0.000000     0.000000     0.000000
   14    -1.000000   180.000000     0.000000     0.000000     1.000000     0.000000     0.000000     0.000000
   15     1.000000   120.000000    -0.577350     0.577350     0.577350     0.000000     0.000000     0.000000
   16    -1.000000   120.000000    -0.577350     0.577350     0.577350     0.000000     0.000000     0.000000
   17     1.000000   120.000000    -0.577350     0.577350    -0.577350     0.000000     0.000000     0.000000
   18    -1.000000   120.000000    -0.577350     0.577350    -0.577350     0.000000     0.000000     0.000000
   19     1.000000    90.000000     0.000000     0.000000     1.000000     0.000000     0.000000     0.000000
   20    -1.000000    90.000000     0.000000     0.000000     1.000000     0.000000     0.000000     0.000000
   21     1.000000    90.000000    -1.000000     0.000000     0.000000     0.000000     0.000000     0.000000
   22    -1.000000    90.000000    -1.000000     0.000000     0.000000     0.000000     0.000000     0.000000
   23     1.000000   180.000000     0.707107     0.000000     0.707107     0.000000     0.000000     0.000000
   24    -1.000000   180.000000     0.707107     0.000000     0.707107     0.000000     0.000000     0.000000
   25     1.000000   120.000000     0.577350    -0.577350     0.577350     0.000000     0.000000     0.000000
   26    -1.000000   120.000000     0.577350    -0.577350     0.577350     0.000000     0.000000     0.000000
   27     1.000000   120.000000    -0.577350    -0.577350     0.577350     0.000000     0.000000     0.000000
   28    -1.000000   120.000000    -0.577350    -0.577350     0.577350     0.000000     0.000000     0.000000
   29     1.000000   180.000000     1.000000     0.000000     0.000000     0.000000     0.000000     0.000000
   30    -1.000000   180.000000     1.000000     0.000000     0.000000     0.000000     0.000000     0.000000
   31     1.000000    90.000000     0.000000    -1.000000     0.000000     0.000000     0.000000     0.000000
   32    -1.000000    90.000000     0.000000    -1.000000     0.000000     0.000000     0.000000     0.000000
   33     1.000000   180.000000     0.707107     0.707107     0.000000     0.000000     0.000000     0.000000
   34    -1.000000   180.000000     0.707107     0.707107     0.000000     0.000000     0.000000     0.000000
   35     1.000000    90.000000     1.000000     0.000000     0.000000     0.000000     0.000000     0.000000
   36    -1.000000    90.000000     1.000000     0.000000     0.000000     0.000000     0.000000     0.000000
   37     1.000000   120.000000     0.577350    -0.577350    -0.577350     0.000000     0.000000     0.000000
   38    -1.000000   120.000000     0.577350    -0.577350    -0.577350     0.000000     0.000000     0.000000
   39     1.000000   180.000000     0.000000     1.000000     0.000000     0.000000     0.000000     0.000000
   40    -1.000000   180.000000     0.000000     1.000000     0.000000     0.000000     0.000000     0.000000
   41     1.000000   120.000000     0.577350     0.577350    -0.577350     0.000000     0.000000     0.000000
   42    -1.000000   120.000000     0.577350     0.577350    -0.577350     0.000000     0.000000     0.000000
   43     1.000000   180.000000     0.000000    -0.707107     0.707107     0.000000     0.000000     0.000000
   44    -1.000000   180.000000     0.000000    -0.707107     0.707107     0.000000     0.000000     0.000000
   45     1.000000   180.000000     0.707107    -0.707107     0.000000     0.000000     0.000000     0.000000
   46    -1.000000   180.000000     0.707107    -0.707107     0.000000     0.000000     0.000000     0.000000
   47     1.000000   180.000000     0.707107     0.000000    -0.707107     0.000000     0.000000     0.000000
   48    -1.000000   180.000000     0.707107     0.000000    -0.707107     0.000000     0.000000     0.000000
 
 Subroutine IBZKPT returns following result:
 ===========================================
 
 Found     35 irreducible k-points:
 
 Following reciprocal coordinates:
            Coordinates               Weight
  0.050000  0.050000  0.050000      8.000000
  0.150000  0.050000  0.050000     24.000000
  0.250000  0.050000  0.050000     24.000000
  0.350000  0.050000  0.050000     24.000000
  0.450000  0.050000  0.050000     24.000000
  0.150000  0.150000  0.050000     24.000000
  0.250000  0.150000  0.050000     48.000000
  0.350000  0.150000  0.050000     48.000000
  0.450000  0.150000  0.050000     48.000000
  0.250000  0.250000  0.050000     24.000000
  0.350000  0.250000  0.050000     48.000000
  0.450000  0.250000  0.050000     48.000000
  0.350000  0.350000  0.050000     24.000000
  0.450000  0.350000  0.050000     48.000000
  0.450000  0.450000  0.050000     24.000000
  0.150000  0.150000  0.150000      8.000000
  0.250000  0.150000  0.150000     24.000000
  0.350000  0.150000  0.150000     24.000000
  0.450000  0.150000  0.150000     24.000000
  0.250000  0.250000  0.150000     24.000000
  0.350000  0.250000  0.150000     48.000000
  0.450000  0.250000  0.150000     48.000000
  0.350000  0.350000  0.150000     24.000000
  0.450000  0.350000  0.150000     48.000000
  0.450000  0.450000  0.150000     24.000000
  0.250000  0.250000  0.250000      8.000000
  0.350000  0.250000  0.250000     24.000000
  0.450000  0.250000  0.250000     24.000000
  0.350000  0.350000  0.250000     24.000000
  0.450000  0.350000  0.250000     48.000000
  0.450000  0.450000  0.250000     24.000000
  0.350000  0.350000  0.350000      8.000000
  0.450000  0.350000  0.350000     24.000000
  0.450000  0.450000  0.350000     24.000000
  0.450000  0.450000  0.450000      8.000000
 
 Following cartesian coordinates:
            Coordinates               Weight
  0.017605  0.017605  0.017605      8.000000
  0.052816  0.017605  0.017605     24.000000
  0.088027  0.017605  0.017605     24.000000
  0.123237  0.017605  0.017605     24.000000
  0.158448  0.017605  0.017605     24.000000
  0.052816  0.052816  0.017605     24.000000
  0.088027  0.052816  0.017605     48.000000
  0.123237  0.052816  0.017605     48.000000
  0.158448  0.052816  0.017605     48.000000
  0.088027  0.088027  0.017605     24.000000
  0.123237  0.088027  0.017605     48.000000
  0.158448  0.088027  0.017605     48.000000
  0.123237  0.123237  0.017605     24.000000
  0.158448  0.123237  0.017605     48.000000
  0.158448  0.158448  0.017605     24.000000
  0.052816  0.052816  0.052816      8.000000
  0.088027  0.052816  0.052816     24.000000
  0.123237  0.052816  0.052816     24.000000
  0.158448  0.052816  0.052816     24.000000
  0.088027  0.088027  0.052816     24.000000
  0.123237  0.088027  0.052816     48.000000
  0.158448  0.088027  0.052816     48.000000
  0.123237  0.123237  0.052816     24.000000
  0.158448  0.123237  0.052816     48.000000
  0.158448  0.158448  0.052816     24.000000
  0.088027  0.088027  0.088027      8.000000
  0.123237  0.088027  0.088027     24.000000
  0.158448  0.088027  0.088027     24.000000
  0.123237  0.123237  0.088027     24.000000
  0.158448  0.123237  0.088027     48.000000
  0.158448  0.158448  0.088027     24.000000
  0.123237  0.123237  0.123237      8.000000
  0.158448  0.123237  0.123237     24.000000
  0.158448  0.158448  0.123237     24.000000
  0.158448  0.158448  0.158448      8.000000
 
 TETIRR: Found    466 inequivalent tetrahedra from     6000


--------------------------------------------------------------------------------------------------------




 Dimension of arrays:
   k-points           NKPTS =     35   k-points in BZ     NKDIM =     35   number of bands    NBANDS=     24
   number of dos      NEDOS =    301   number of ions     NIONS =      2
   non local maximal  LDIM  =      6   non local SUM 2l+1 LMDIM =     18
   total plane-waves  NPLWV =  21952
   max r-space proj   IRMAX =   7934   max aug-charges    IRDMAX=  28578
   dimension x,y,z NGX =    28 NGY =   28 NGZ =   28
   dimension x,y,z NGXF=    56 NGYF=   56 NGZF=   56
   support grid    NGXF=    56 NGYF=   56 NGZF=   56
   ions per type =               2
   NGX,Y,Z   is equivalent  to a cutoff of  16.39, 16.39, 16.39 a.u.
   NGXF,Y,Z  is equivalent  to a cutoff of  32.78, 32.78, 32.78 a.u.

 SYSTEM =  unknown system                          
 POSCAR =  Fe2                                     

 Startparameter for this run:
   NWRITE =      2    write-flag & timer
   PREC   = accura    normal or accurate (medium, high low for compatibility)
   ISTART =      0    job   : 0-new  1-cont  2-samecut
   ICHARG =      2    charge: 1-file 2-atom 10-const
   ISPIN  =      2    spin polarized calculation?
   LNONCOLLINEAR =      F non collinear calculations
   LSORBIT =      F    spin-orbit coupling
   INIWAV =      1    electr: 0-lowe 1-rand  2-diag
   LASPH  =      F    aspherical Exc in radial PAW
   METAGGA=      F    non-selfconsistent MetaGGA calc.

 Electronic Relaxation 1
   ENCUT  =  780.0 eV  57.33 Ry    7.57 a.u.   6.47  6.47  6.47*2*pi/ulx,y,z
   ENINI  =  780.0     initial cutoff
   ENAUG  =  578.3 eV  augmentation charge cutoff
   NELM   =    100;   NELMIN=  2; NELMDL= -5     # of ELM steps 
   EDIFF  = 0.1E-06   stopping-criterion for ELM
   LREAL  =      T    real-space projection
   NLSPLINE    = F    spline interpolate recip. space projectors
   LCOMPAT=      F    compatible to vasp.4.4
   GGA_COMPAT  = T    GGA compatible to vasp.4.4-vasp.4.6
   LMAXPAW     = -100 max onsite density
   LMAXMIX     =    2 max onsite mixed and CHGCAR
   VOSKOWN=      0    Vosko Wilk Nusair interpolation
   ROPT   =   -0.00025
 Ionic relaxation
   EDIFFG = 0.1E-05   stopping-criterion for IOM
   NSW    =      0    number of steps for IOM
   NBLOCK =      1;   KBLOCK =      1    inner block; outer block 
   IBRION =     -1    ionic relax: 0-MD 1-quasi-New 2-CG
   NFREE  =      0    steps in history (QN), initial steepest desc. (CG)
   ISIF   =      3    stress and relaxation
   IWAVPR =     10    prediction:  0-non 1-charg 2-wave 3-comb
   ISYM   =      2    0-nonsym 1-usesym 2-fastsym
   LCORR  =      T    Harris-Foulkes like correction to forces

   POTIM  = 0.5000    time-step for ionic-motion
   TEIN   =    0.0    initial temperature
   TEBEG  =    0.0;   TEEND  =   0.0 temperature during run
   SMASS  =  -3.00    Nose mass-parameter (am)
   estimated Nose-frequenzy (Omega)   =  0.10E-29 period in steps =****** mass=  -0.184E-27a.u.
   SCALEE = 1.0000    scale energy and forces
   NPACO  =    256;   APACO  = 16.0  distance and # of slots for P.C.
   PSTRESS=    0.0 pullay stress

  Mass of Ions in am
   POMASS =  55.85
  Ionic Valenz
   ZVAL   =  14.00
  Atomic Wigner-Seitz radii
   RWIGS  =  -1.00
  virtual crystal weights 
   VCA    =   1.00
   NELECT =      28.0000    total number of electrons
   NUPDOWN=      -1.0000    fix difference up-down

 DOS related values:
   EMIN   =  10.00;   EMAX   =-10.00  energy-range for DOS
   EFERMI =   0.00
   ISMEAR =    -5;   SIGMA  =   0.05  broadening in eV -4-tet -1-fermi 0-gaus

 Electronic relaxation 2 (details)
   IALGO  =     38    algorithm
   LDIAG  =      T    sub-space diagonalisation (order eigenvalues)
   LSUBROT=      F    optimize rotation matrix (better conditioning)
   TURBO    =      0    0=normal 1=particle mesh
   IRESTART =      0    0=no restart 2=restart with 2 vectors
   NREBOOT  =      0    no. of reboots
   NMIN     =      0    reboot dimension
   EREF     =   0.00    reference energy to select bands
   IMIX   =      4    mixing-type and parameters
     AMIX     =   0.40;   BMIX     =  1.00
     AMIX_MAG =   1.60;   BMIX_MAG =  1.00
     AMIN     =   0.10
     WC   =   100.;   INIMIX=   1;  MIXPRE=   1;  MAXMIX= -45

 Intra band minimization:
   WEIMIN = 0.0000     energy-eigenvalue tresh-hold
   EBREAK =  0.10E-08  absolut break condition
   DEPER  =   0.30     relativ break condition  

   TIME   =   0.40     timestep for ELM

  volume/ion in A,a.u.               =      11.45        77.29
  Fermi-wavevector in a.u.,A,eV,Ry     =   1.750389  3.307755 41.686364  3.063861
  Thomas-Fermi vector in A             =   2.821117
 
 Write flags
   LWAVE        =      F    write WAVECAR
   LDOWNSAMPLE  =      F    k-point downsampling of WAVECAR
   LCHARG       =      F    write CHGCAR
   LVTOT        =      F    write LOCPOT, total local potential
   LVHAR        =      F    write LOCPOT, Hartree potential only
   LELF         =      F    write electronic localiz. function (ELF)
   LORBIT       =     11    0 simple, 1 ext, 2 COOP (PROOUT), +10 PAW based schemes


 Dipole corrections
   LMONO  =      F    monopole corrections only (constant potential shift)
   LDIPOL =      F    correct potential (dipole corrections)
   IDIPOL =      0    1-x, 2-y, 3-z, 4-all directions 
   EPSILON=  1.0000000 bulk dielectric constant

 Exchange correlation treatment:
   GGA     =    --    GGA type
   LEXCH   =     8    internal setting for exchange type
   VOSKOWN=      0    Vosko Wilk Nusair interpolation
   LHFCALC =     F    Hartree Fock is set to
   LHFONE  =     F    Hartree Fock one center treatment
   AEXX    =    0.0000 exact exchange contribution

 Linear response parameters
   LEPSILON=     F    determine dielectric tensor
   LRPA    =     F    only Hartree local field effects (RPA)
   LNABLA  =     F    use nabla operator in PAW spheres
   LVEL    =     F    velocity operator in full k-point grid
   LINTERFAST=   F  fast interpolation
   KINTER  =     0    interpolate to denser k-point grid
   CSHIFT  =0.1000    complex shift for real part using Kramers Kronig
   OMEGAMAX=  -1.0    maximum frequency
   DEG_THRESHOLD= 0.2000000E-02 threshold for treating states as degnerate
   RTIME   =   -0.100 relaxation time in fs
  (WPLASMAI=    0.000 imaginary part of plasma frequency in eV, 0.658/RTIME)
   DFIELD  = 0.0000000 0.0000000 0.0000000 field for delta impulse in time
 
 Orbital magnetization related:
   ORBITALMAG=     F  switch on orbital magnetization
   LCHIMAG   =     F  perturbation theory with respect to B field
   DQ        =  0.001000  dq finite difference perturbation B field
   LLRAUG    =     F  two centre corrections for induced B field



--------------------------------------------------------------------------------------------------------


 Static calculation
 charge density and potential will be updated during run
 spin polarized calculation
 Variant of blocked Davidson
 Davidson routine will perform the subspace rotation
 perform sub-space diagonalisation
    after iterative eigenvector-optimisation
 modified Broyden-mixing scheme, WC =      100.0
 initial mixing is a Kerker type mixing with AMIX =  0.4000 and BMIX =      1.0000
 Hartree-type preconditioning will be used
 using additional bands           10
 real space projection scheme for non local part
 use partial core corrections
 calculate Harris-corrections to forces 
   (improved forces if not selfconsistent)
 use gradient corrections 
 use of overlap-Matrix (Vanderbilt PP)
 Fermi weights with tetrahedron method with Bloechl corrections


--------------------------------------------------------------------------------------------------------


  energy-cutoff  :      780.00
  volume of cell :       22.91
      direct lattice vectors                 reciprocal lattice vectors
     2.840052000  0.000000000  0.000000000     0.352106229  0.000000000  0.000000000
     0.000000000  2.840052000  0.000000000     0.000000000  0.352106229  0.000000000
     0.000000000  0.000000000  2.840052000     0.000000000  0.000000000  0.352106229

  length of vectors
     2.840052000  2.840052000  2.840052000     0.352106229  0.352106229  0.352106229


 
 k-points in units of 2pi/SCALE and weight: pymatgen with grid density = 2166 / numb
   0.01760531  0.01760531  0.01760531       0.008
   0.05281593  0.01760531  0.01760531       0.024
   0.08802656  0.01760531  0.01760531       0.024
   0.12323718  0.01760531  0.01760531       0.024
   0.15844780  0.01760531  0.01760531       0.024
   0.05281593  0.05281593  0.01760531       0.024
   0.08802656  0.05281593  0.01760531       0.048
   0.12323718  0.05281593  0.01760531       0.048
   0.15844780  0.05281593  0.01760531       0.048
   0.08802656  0.08802656  0.01760531       0.024
   0.12323718  0.08802656  0.01760531       0.048
   0.15844780  0.08802656  0.01760531       0.048
   0.12323718  0.12323718  0.01760531       0.024
   0.15844780  0.12323718  0.01760531       0.048
   0.15844780  0.15844780  0.01760531       0.024
   0.05281593  0.05281593  0.05281593       0.008
   0.08802656  0.05281593  0.05281593       0.024
   0.12323718  0.05281593  0.05281593       0.024
   0.15844780  0.05281593  0.05281593       0.024
   0.08802656  0.08802656  0.05281593       0.024
   0.12323718  0.08802656  0.05281593       0.048
   0.15844780  0.08802656  0.05281593       0.048
   0.12323718  0.12323718  0.05281593       0.024
   0.15844780  0.12323718  0.05281593       0.048
   0.15844780  0.15844780  0.05281593       0.024
   0.08802656  0.08802656  0.08802656       0.008
   0.12323718  0.08802656  0.08802656       0.024
   0.15844780  0.08802656  0.08802656       0.024
   0.12323718  0.12323718  0.08802656       0.024
   0.15844780  0.12323718  0.08802656       0.048
   0.15844780  0.15844780  0.08802656       0.024
   0.12323718  0.12323718  0.12323718       0.008
   0.15844780  0.12323718  0.12323718       0.024
   0.15844780  0.15844780  0.12323718       0.024
   0.15844780  0.15844780  0.15844780       0.008
 
 k-points in reciprocal lattice and weights: pymatgen with grid density = 2166 / numb
   0.05000000  0.05000000  0.05000000       0.008
   0.15000000  0.05000000  0.05000000       0.024
   0.25000000  0.05000000  0.05000000       0.024
   0.35000000  0.05000000  0.05000000       0.024
   0.45000000  0.05000000  0.05000000       0.024
   0.15000000  0.15000000  0.05000000       0.024
   0.25000000  0.15000000  0.05000000       0.048
   0.35000000  0.15000000  0.05000000       0.048
   0.45000000  0.15000000  0.05000000       0.048
   0.25000000  0.25000000  0.05000000       0.024
   0.35000000  0.25000000  0.05000000       0.048
   0.45000000  0.25000000  0.05000000       0.048
   0.35000000  0.35000000  0.05000000       0.024
   0.45000000  0.35000000  0.05000000       0.048
   0.45000000  0.45000000  0.05000000       0.024
   0.15000000  0.15000000  0.15000000       0.008
   0.25000000  0.15000000  0.15000000       0.024
   0.35000000  0.15000000  0.15000000       0.024
   0.45000000  0.15000000  0.15000000       0.024
   0.25000000  0.25000000  0.15000000       0.024
   0.35000000  0.25000000  0.15000000       0.048
   0.45000000  0.25000000  0.15000000       0.048
   0.35000000  0.35000000  0.15000000       0.024
   0.45000000  0.35000000  0.15000000       0.048
   0.45000000  0.45000000  0.15000000       0.024
   0.25000000  0.25000000  0.25000000       0.008
   0.35000000  0.25000000  0.25000000       0.024
   0.45000000  0.25000000  0.25000000       0.024
   0.35000000  0.35000000  0.25000000       0.024
   0.45000000  0.35000000  0.25000000       0.048
   0.45000000  0.45000000  0.25000000       0.024
   0.35000000  0.35000000  0.35000000       0.008
   0.45000000  0.35000000  0.35000000       0.024
   0.45000000  0.45000000  0.35000000       0.024
   0.45000000  0.45000000  0.45000000       0.008
 
 position of ions in fractional coordinates (direct lattice) 
   0.00000000  0.00000000  0.00000000
   0.50000000  0.50000000  0.50000000
 
 position of ions in cartesian coordinates  (Angst):
   0.00000000  0.00000000  0.00000000
   1.42002600  1.42002600  1.42002600
 


--------------------------------------------------------------------------------------------------------


 k-point  1 :   0.0500 0.0500 0.0500  plane waves:    1144
 k-point  2 :   0.1500 0.0500 0.0500  plane waves:    1135
 k-point  3 :   0.2500 0.0500 0.0500  plane waves:    1140
 k-point  4 :   0.3500 0.0500 0.0500  plane waves:    1137
 k-point  5 :   0.4500 0.0500 0.0500  plane waves:    1141
 k-point  6 :   0.1500 0.1500 0.0500  plane waves:    1133
 k-point  7 :   0.2500 0.1500 0.0500  plane waves:    1143
 k-point  8 :   0.3500 0.1500 0.0500  plane waves:    1135
 k-point  9 :   0.4500 0.1500 0.0500  plane waves:    1135
 k-point 10 :   0.2500 0.2500 0.0500  plane waves:    1136
 k-point 11 :   0.3500 0.2500 0.0500  plane waves:    1137
 k-point 12 :   0.4500 0.2500 0.0500  plane waves:    1129
 k-point 13 :   0.3500 0.3500 0.0500  plane waves:    1137
 k-point 14 :   0.4500 0.3500 0.0500  plane waves:    1128
 k-point 15 :   0.4500 0.4500 0.0500  plane waves:    1128
 k-point 16 :   0.1500 0.1500 0.1500  plane waves:    1129
 k-point 17 :   0.2500 0.1500 0.1500  plane waves:    1135
 k-point 18 :   0.3500 0.1500 0.1500  plane waves:    1141
 k-point 19 :   0.4500 0.1500 0.1500  plane waves:    1142
 k-point 20 :   0.2500 0.2500 0.1500  plane waves:    1134
 k-point 21 :   0.3500 0.2500 0.1500  plane waves:    1136
 k-point 22 :   0.4500 0.2500 0.1500  plane waves:    1134
 k-point 23 :   0.3500 0.3500 0.1500  plane waves:    1132
 k-point 24 :   0.4500 0.3500 0.1500  plane waves:    1126
 k-point 25 :   0.4500 0.4500 0.1500  plane waves:    1127
 k-point 26 :   0.2500 0.2500 0.2500  plane waves:    1138
 k-point 27 :   0.3500 0.2500 0.2500  plane waves:    1131
 k-point 28 :   0.4500 0.2500 0.2500  plane waves:    1128
 k-point 29 :   0.3500 0.3500 0.2500  plane waves:    1127
 k-point 30 :   0.4500 0.3500 0.2500  plane waves:    1132
 k-point 31 :   0.4500 0.4500 0.2500  plane waves:    1126
 k-point 32 :   0.3500 0.3500 0.3500  plane waves:    1124
 k-point 33 :   0.4500 0.3500 0.3500  plane waves:    1119
 k-point 34 :   0.4500 0.4500 0.3500  plane waves:    1116
 k-point 35 :   0.4500 0.4500 0.4500  plane waves:    1100

 maximum and minimum number of plane-waves per node :       295      273

 maximum number of plane-waves:      1144
 maximum index in each direction: 
   IXMAX=    6   IYMAX=    6   IZMAX=    6
   IXMIN=   -6   IYMIN=   -6   IZMIN=   -6


 real space projection operators:
  total allocation   :       2162.53 KBytes
  max/ min on nodes  :        540.70        540.56


 parallel 3D FFT for wavefunctions:
    minimum data exchange during FFTs selected (reduces bandwidth)
 parallel 3D FFT for charge:
    minimum data exchange during FFTs selected (reduces bandwidth)


 total amount of memory used by VASP MPI-rank0    33979. kBytes
=======================================================================

   base      :      30000. kBytes
   nonlr-proj:        934. kBytes
   fftplans  :        476. kBytes
   grid      :       1141. kBytes
   one-center:         31. kBytes
   wavefun   :       1397. kBytes
 
     INWAV:  cpu time    0.0000: real time    0.0001
 Broyden mixing: mesh for mixing (old mesh)
   NGX = 13   NGY = 13   NGZ = 13
  (NGX  = 56   NGY  = 56   NGZ  = 56)
  gives a total of   2197 points

 initial charge density was supplied:
 charge density of overlapping atoms calculated
 number of electron      28.0000000 magnetization      10.0000000
 keeping initial charge density in first step


--------------------------------------------------------------------------------------------------------


 Maximum index for non-local projection operator         1926
 Maximum index for augmentation-charges         1986 (set IRDMAX)


--------------------------------------------------------------------------------------------------------


 First call to EWALD:  gamma=   0.624
 Maximum number of real-space cells 3x 3x 3
 Maximum number of reciprocal cells 3x 3x 3

    FEWALD:  cpu time    0.0013: real time    0.0013


--------------------------------------- Iteration      1(   1)  ---------------------------------------


    POTLOK:  cpu time    0.0127: real time    0.0128
    SETDIJ:  cpu time    0.0068: real time    0.0069
     EDDAV:  cpu time    0.5129: real time    0.5247
 BZINTS: Fermi energy: 21.492226; 28.000000 electrons
         Band energy: -71.026513;  BLOECHL correction: -0.207626
       DOS:  cpu time    0.0348: real time    0.0349
    --------------------------------------------
      LOOP:  cpu time    0.5673: real time    0.5793

 eigenvalue-minimisations  :  3420
 total energy-change (2. order) : 0.2514015E+03  (-0.2200329E+04)
 number of electron      28.0000000 magnetization      10.0000000
 augmentation part       28.0000000 magnetization      10.0000000

 Free energy of the ion-electron system (eV)
  ---------------------------------------------------
  alpha Z        PSCENC =       218.87048721
  Ewald energy   TEWEN  =     -3616.56080017
  -Hartree energ DENC   =     -1162.86386254
  -exchange      EXHF   =         0.00000000
  -V(xc)+E(xc)   XCENC  =       147.54621443
  PAW double counting   =      3997.93860218    -4177.34792201
  entropy T*S    EENTRO =         0.00000000
  eigenvalues    EBANDS =       -71.02651340
  atomic energy  EATOM  =      4914.84533492
  Solvation  Ediel_sol  =         0.00000000
  ---------------------------------------------------
  free energy    TOTEN  =       251.40154062 eV

  energy without entropy =      251.40154062  energy(sigma->0) =      251.40154062


--------------------------------------------------------------------------------------------------------




--------------------------------------- Iteration      1(   2)  ---------------------------------------


     EDDAV:  cpu time    0.5077: real time    0.5092
 BZINTS: Fermi energy: 12.212008; 28.000000 electrons
         Band energy:-331.202916;  BLOECHL correction: -0.070722
       DOS:  cpu time    0.0347: real time    0.0348
    --------------------------------------------
      LOOP:  cpu time    0.5423: real time    0.5440

 eigenvalue-minimisations  :  3468
 total energy-change (2. order) :-0.2601764E+03  (-0.2492799E+03)
 number of electron      28.0000000 magnetization      10.0000000
 augmentation part       28.0000000 magnetization      10.0000000

 Free energy of the ion-electron system (eV)
  ---------------------------------------------------
  alpha Z        PSCENC =       218.87048721
  Ewald energy   TEWEN  =     -3616.56080017
  -Hartree energ DENC   =     -1162.86386254
  -exchange      EXHF   =         0.00000000
  -V(xc)+E(xc)   XCENC  =       147.54621443
  PAW double counting   =      3997.93860218    -4177.34792201
  entropy T*S    EENTRO =         0.00000000
  eigenvalues    EBANDS =      -331.20291558
  atomic energy  EATOM  =      4914.84533492
  Solvation  Ediel_sol  =         0.00000000
  ---------------------------------------------------
  free energy    TOTEN  =        -8.77486157 eV

  energy without entropy =       -8.77486157  energy(sigma->0) =       -8.77486157


--------------------------------------------------------------------------------------------------------




--------------------------------------- Iteration      1(   3)  ---------------------------------------


     EDDAV:  cpu time    0.5265: real time    0.5282
 BZINTS: Fermi energy: 12.037021; 28.000000 electrons
         Band energy:-338.637031;  BLOECHL correction: -0.071278
       DOS:  cpu time    0.0344: real time    0.0347
    --------------------------------------------
      LOOP:  cpu time    0.5609: real time    0.5629

 eigenvalue-minimisations  :  3576
 total energy-change (2. order) :-0.7434115E+01  (-0.7419003E+01)
 number of electron      28.0000000 magnetization      10.0000000
 augmentation part       28.0000000 magnetization      10.0000000

 Free energy of the ion-electron system (eV)
  ---------------------------------------------------
  alpha Z        PSCENC =       218.87048721
  Ewald energy   TEWEN  =     -3616.56080017
  -Hartree energ DENC   =     -1162.86386254
  -exchange      EXHF   =         0.00000000
  -V(xc)+E(xc)   XCENC  =       147.54621443
  PAW double counting   =      3997.93860218    -4177.34792201
  entropy T*S    EENTRO =         0.00000000
  eigenvalues    EBANDS =      -338.63703054
  atomic energy  EATOM  =      4914.84533492
  Solvation  Ediel_sol  =         0.00000000
  ---------------------------------------------------
  free energy    TOTEN  =       -16.20897652 eV

  energy without entropy =      -16.20897652  energy(sigma->0) =      -16.20897652


--------------------------------------------------------------------------------------------------------




--------------------------------------- Iteration      1(   4)  ---------------------------------------


     EDDAV:  cpu time    0.5955: real time    0.5978
 BZINTS: Fermi energy: 12.036529; 28.000000 electrons
         Band energy:-338.701268;  BLOECHL correction: -0.071274
       DOS:  cpu time    0.0343: real time    0.0344
    --------------------------------------------
      LOOP:  cpu time    0.6298: real time    0.6322

 eigenvalue-minimisations  :  4056
 total energy-change (2. order) :-0.6423701E-01  (-0.6424178E-01)
 number of electron      28.0000000 magnetization      10.0000000
 augmentation part       28.0000000 magnetization      10.0000000

 Free energy of the ion-electron system (eV)
  ---------------------------------------------------
  alpha Z        PSCENC =       218.87048721
  Ewald energy   TEWEN  =     -3616.56080017
  -Hartree energ DENC   =     -1162.86386254
  -exchange      EXHF   =         0.00000000
  -V(xc)+E(xc)   XCENC  =       147.54621443
  PAW double counting   =      3997.93860218    -4177.34792201
  entropy T*S    EENTRO =         0.00000000
  eigenvalues    EBANDS =      -338.70126755
  atomic energy  EATOM  =      4914.84533492
  Solvation  Ediel_sol  =         0.00000000
  ---------------------------------------------------
  free energy    TOTEN  =       -16.27321353 eV

  energy without entropy =      -16.27321353  energy(sigma->0) =      -16.27321353


--------------------------------------------------------------------------------------------------------




--------------------------------------- Iteration      1(   5)  ---------------------------------------


     EDDAV:  cpu time    0.5265: real time    0.5290
 BZINTS: Fermi energy: 12.036527; 28.000000 electrons
         Band energy:-338.702451;  BLOECHL correction: -0.071273
       DOS:  cpu time    0.0342: real time    0.0343
    CHARGE:  cpu time    0.0222: real time    0.0223
    MIXING:  cpu time    0.0007: real time    0.0007
    --------------------------------------------
      LOOP:  cpu time    0.5837: real time    0.5864

 eigenvalue-minimisations  :  3552
 total energy-change (2. order) :-0.1183077E-02  (-0.1183134E-02)
 number of electron      27.9999985 magnetization       4.3573661
 augmentation part       15.9045553 magnetization       2.8335803

 Broyden mixing:
  rms(total) = 0.24992E+01    rms(broyden)= 0.24992E+01
  rms(prec ) = 0.39513E+01
  weight for this iteration     100.00

 Free energy of the ion-electron system (eV)
  ---------------------------------------------------
  alpha Z        PSCENC =       218.87048721
  Ewald energy   TEWEN  =     -3616.56080017
  -Hartree energ DENC   =     -1162.86386254
  -exchange      EXHF   =         0.00000000
  -V(xc)+E(xc)   XCENC  =       147.54621443
  PAW double counting   =      3997.93860218    -4177.34792201
  entropy T*S    EENTRO =         0.00000000
  eigenvalues    EBANDS =      -338.70245062
  atomic energy  EATOM  =      4914.84533492
  Solvation  Ediel_sol  =         0.00000000
  ---------------------------------------------------
  free energy    TOTEN  =       -16.27439661 eV

  energy without entropy =      -16.27439661  energy(sigma->0) =      -16.27439661


--------------------------------------------------------------------------------------------------------




--------------------------------------- Iteration      1(   6)  ---------------------------------------


    POTLOK:  cpu time    0.0104: real time    0.0106
    SETDIJ:  cpu time    0.0055: real time    0.0055
     EDDAV:  cpu time    0.5061: real time    0.5073
 BZINTS: Fermi energy:  9.265817; 28.000000 electrons
         Band energy:-409.588726;  BLOECHL correction: -0.036202
       DOS:  cpu time    0.0349: real time    0.0350
    CHARGE:  cpu time    0.0223: real time    0.0224
    MIXING:  cpu time    0.0006: real time    0.0007
    --------------------------------------------
      LOOP:  cpu time    0.5799: real time    0.5814

 eigenvalue-minimisations  :  3420
 total energy-change (2. order) :-0.1844120E+00  (-0.7492230E+00)
 number of electron      27.9999984 magnetization       4.5319407
 augmentation part       17.0679430 magnetization       3.5496925

 Broyden mixing:
  rms(total) = 0.69116E+00    rms(broyden)= 0.69116E+00
  rms(prec ) = 0.86633E+00
  weight for this iteration     100.00

 eigenvalues of (default mixing * dielectric matrix)
  average eigenvalue GAMMA=   0.8370
  0.8370

 Free energy of the ion-electron system (eV)
  ---------------------------------------------------
  alpha Z        PSCENC =       218.87048721
  Ewald energy   TEWEN  =     -3616.56080017
  -Hartree energ DENC   =     -1089.08938405
  -exchange      EXHF   =         0.00000000
  -V(xc)+E(xc)   XCENC  =       140.63843874
  PAW double counting   =      4113.91178197    -4289.48594097
  entropy T*S    EENTRO =         0.00000000
  eigenvalues    EBANDS =      -409.58872624
  atomic energy  EATOM  =      4914.84533492
  Solvation  Ediel_sol  =         0.00000000
  ---------------------------------------------------
  free energy    TOTEN  =       -16.45880858 eV

  energy without entropy =      -16.45880858  energy(sigma->0) =      -16.45880858


--------------------------------------------------------------------------------------------------------




--------------------------------------- Iteration      1(   7)  ---------------------------------------


    POTLOK:  cpu time    0.0105: real time    0.0108
    SETDIJ:  cpu time    0.0053: real time    0.0054
     EDDAV:  cpu time    0.5007: real time    0.5020
 BZINTS: Fermi energy:  9.762258; 28.000000 electrons
         Band energy:-395.205504;  BLOECHL correction: -0.033727
       DOS:  cpu time    0.0331: real time    0.0331
    CHARGE:  cpu time    0.0217: real time    0.0217
    MIXING:  cpu time    0.0005: real time    0.0005
    --------------------------------------------
      LOOP:  cpu time    0.5717: real time    0.5735

 eigenvalue-minimisations  :  3408
 total energy-change (2. order) :-0.5454454E-01  (-0.6147457E-01)
 number of electron      27.9999985 magnetization       4.4437181
 augmentation part       16.7744112 magnetization       3.5266768

 Broyden mixing:
  rms(total) = 0.43075E+00    rms(broyden)= 0.43075E+00
  rms(prec ) = 0.52583E+00
  weight for this iteration     100.00

 eigenvalues of (default mixing * dielectric matrix)
  average eigenvalue GAMMA=   0.7673
  0.9881  0.5466

 Free energy of the ion-electron system (eV)
  ---------------------------------------------------
  alpha Z        PSCENC =       218.87048721
  Ewald energy   TEWEN  =     -3616.56080017
  -Hartree energ DENC   =     -1099.07939046
  -exchange      EXHF   =         0.00000000
  -V(xc)+E(xc)   XCENC  =       141.33088839
  PAW double counting   =      4219.88120253    -4400.59557158
  entropy T*S    EENTRO =         0.00000000
  eigenvalues    EBANDS =      -395.20550395
  atomic energy  EATOM  =      4914.84533492
  Solvation  Ediel_sol  =         0.00000000
  ---------------------------------------------------
  free energy    TOTEN  =       -16.51335312 eV

  energy without entropy =      -16.51335312  energy(sigma->0) =      -16.51335312


--------------------------------------------------------------------------------------------------------




--------------------------------------- Iteration      1(   8)  ---------------------------------------


    POTLOK:  cpu time    0.0103: real time    0.0105
    SETDIJ:  cpu time    0.0053: real time    0.0053
     EDDAV:  cpu time    0.5455: real time    0.5468
 BZINTS: Fermi energy:  9.688714; 28.000000 electrons
         Band energy:-397.469759;  BLOECHL correction: -0.033983
       DOS:  cpu time    0.0331: real time    0.0331
    CHARGE:  cpu time    0.0217: real time    0.0219
    MIXING:  cpu time    0.0004: real time    0.0004
    --------------------------------------------
      LOOP:  cpu time    0.6163: real time    0.6180

 eigenvalue-minimisations  :  3744
 total energy-change (2. order) :-0.9715241E-02  (-0.1514477E-02)
 number of electron      27.9999985 magnetization       4.3699036
 augmentation part       16.8105132 magnetization       3.4531046

 Broyden mixing:
  rms(total) = 0.13690E+00    rms(broyden)= 0.13690E+00
  rms(prec ) = 0.21418E+00
  weight for this iteration     100.00

 eigenvalues of (default mixing * dielectric matrix)
  average eigenvalue GAMMA=   1.0474
  1.6985  0.8570  0.5868

 Free energy of the ion-electron system (eV)
  ---------------------------------------------------
  alpha Z        PSCENC =       218.87048721
  Ewald energy   TEWEN  =     -3616.56080017
  -Hartree energ DENC   =     -1095.16441853
  -exchange      EXHF   =         0.00000000
  -V(xc)+E(xc)   XCENC  =       141.10688928
  PAW double counting   =      4267.91180227    -4450.06260455
  entropy T*S    EENTRO =         0.00000000
  eigenvalues    EBANDS =      -397.46975879
  atomic energy  EATOM  =      4914.84533492
  Solvation  Ediel_sol  =         0.00000000
  ---------------------------------------------------
  free energy    TOTEN  =       -16.52306836 eV

  energy without entropy =      -16.52306836  energy(sigma->0) =      -16.52306836


--------------------------------------------------------------------------------------------------------




--------------------------------------- Iteration      1(   9)  ---------------------------------------


    POTLOK:  cpu time    0.0103: real time    0.0104
    SETDIJ:  cpu time    0.0053: real time    0.0053
     EDDAV:  cpu time    0.5277: real time    0.5289
 BZINTS: Fermi energy:  9.610584; 28.000000 electrons
         Band energy:-399.759867;  BLOECHL correction: -0.034535
       DOS:  cpu time    0.0330: real time    0.0331
    CHARGE:  cpu time    0.0216: real time    0.0216
    MIXING:  cpu time    0.0004: real time    0.0004
    --------------------------------------------
      LOOP:  cpu time    0.5983: real time    0.5998

 eigenvalue-minimisations  :  3624
 total energy-change (2. order) : 0.8281829E-02  (-0.5258225E-03)
 number of electron      27.9999985 magnetization       4.4017432
 augmentation part       16.8467008 magnetization       3.4830300

 Broyden mixing:
  rms(total) = 0.33698E-01    rms(broyden)= 0.33698E-01
  rms(prec ) = 0.45957E-01
  weight for this iteration     100.00

 eigenvalues of (default mixing * dielectric matrix)
  average eigenvalue GAMMA=   1.1854
  2.3389  1.0620  0.6994  0.6413

 Free energy of the ion-electron system (eV)
  ---------------------------------------------------
  alpha Z        PSCENC =       218.87048721
  Ewald energy   TEWEN  =     -3616.56080017
  -Hartree energ DENC   =     -1090.25593704
  -exchange      EXHF   =         0.00000000
  -V(xc)+E(xc)   XCENC  =       140.86355353
  PAW double counting   =      4344.42018823    -4528.93774670
  entropy T*S    EENTRO =         0.00000000
  eigenvalues    EBANDS =      -399.75986651
  atomic energy  EATOM  =      4914.84533492
  Solvation  Ediel_sol  =         0.00000000
  ---------------------------------------------------
  free energy    TOTEN  =       -16.51478653 eV

  energy without entropy =      -16.51478653  energy(sigma->0) =      -16.51478653


--------------------------------------------------------------------------------------------------------




--------------------------------------- Iteration      1(  10)  ---------------------------------------


    POTLOK:  cpu time    0.0102: real time    0.0103
    SETDIJ:  cpu time    0.0052: real time    0.0052
     EDDAV:  cpu time    0.5040: real time    0.5053
 BZINTS: Fermi energy:  9.625033; 28.000000 electrons
         Band energy:-399.218160;  BLOECHL correction: -0.034693
       DOS:  cpu time    0.0339: real time    0.0340
    CHARGE:  cpu time    0.0220: real time    0.0220
    MIXING:  cpu time    0.0005: real time    0.0005
    --------------------------------------------
      LOOP:  cpu time    0.5757: real time    0.5773

 eigenvalue-minimisations  :  3456
 total energy-change (2. order) : 0.1988609E-03  (-0.2242176E-03)
 number of electron      27.9999985 magnetization       4.4065167
 augmentation part       16.8346965 magnetization       3.4850450

 Broyden mixing:
  rms(total) = 0.44150E-02    rms(broyden)= 0.44150E-02
  rms(prec ) = 0.54494E-02
  weight for this iteration     100.00

 eigenvalues of (default mixing * dielectric matrix)
  average eigenvalue GAMMA=   1.1291
  2.4316  1.0998  0.7830  0.6971  0.6339

 Free energy of the ion-electron system (eV)
  ---------------------------------------------------
  alpha Z        PSCENC =       218.87048721
  Ewald energy   TEWEN  =     -3616.56080017
  -Hartree energ DENC   =     -1089.87211059
  -exchange      EXHF   =         0.00000000
  -V(xc)+E(xc)   XCENC  =       140.87094879
  PAW double counting   =      4373.21852838    -4558.66881583
  entropy T*S    EENTRO =         0.00000000
  eigenvalues    EBANDS =      -399.21816038
  atomic energy  EATOM  =      4914.84533492
  Solvation  Ediel_sol  =         0.00000000
  ---------------------------------------------------
  free energy    TOTEN  =       -16.51458767 eV

  energy without entropy =      -16.51458767  energy(sigma->0) =      -16.51458767


--------------------------------------------------------------------------------------------------------




--------------------------------------- Iteration      1(  11)  ---------------------------------------


    POTLOK:  cpu time    0.0103: real time    0.0104
    SETDIJ:  cpu time    0.0053: real time    0.0053
     EDDAV:  cpu time    0.5188: real time    0.5200
 BZINTS: Fermi energy:  9.623465; 28.000000 electrons
         Band energy:-399.250560;  BLOECHL correction: -0.034711
       DOS:  cpu time    0.0339: real time    0.0340
    CHARGE:  cpu time    0.0218: real time    0.0219
    MIXING:  cpu time    0.0005: real time    0.0005
    --------------------------------------------
      LOOP:  cpu time    0.5905: real time    0.5920

 eigenvalue-minimisations  :  3576
 total energy-change (2. order) :-0.6001952E-04  (-0.4984075E-05)
 number of electron      27.9999985 magnetization       4.4059187
 augmentation part       16.8352539 magnetization       3.4847065

 Broyden mixing:
  rms(total) = 0.24187E-02    rms(broyden)= 0.24187E-02
  rms(prec ) = 0.32647E-02
  weight for this iteration     100.00

 eigenvalues of (default mixing * dielectric matrix)
  average eigenvalue GAMMA=   1.2960
  2.3072  2.3072  1.0749  0.6332  0.7556  0.6976

 Free energy of the ion-electron system (eV)
  ---------------------------------------------------
  alpha Z        PSCENC =       218.87048721
  Ewald energy   TEWEN  =     -3616.56080017
  -Hartree energ DENC   =     -1089.86457575
  -exchange      EXHF   =         0.00000000
  -V(xc)+E(xc)   XCENC  =       140.87326679
  PAW double counting   =      4374.42902022    -4559.85682046
  entropy T*S    EENTRO =         0.00000000
  eigenvalues    EBANDS =      -399.25056045
  atomic energy  EATOM  =      4914.84533492
  Solvation  Ediel_sol  =         0.00000000
  ---------------------------------------------------
  free energy    TOTEN  =       -16.51464769 eV

  energy without entropy =      -16.51464769  energy(sigma->0) =      -16.51464769


--------------------------------------------------------------------------------------------------------




--------------------------------------- Iteration      1(  12)  ---------------------------------------


    POTLOK:  cpu time    0.0102: real time    0.0108
    SETDIJ:  cpu time    0.0053: real time    0.0053
     EDDAV:  cpu time    0.5669: real time    0.5684
 BZINTS: Fermi energy:  9.621938; 28.000000 electrons
         Band energy:-399.284871;  BLOECHL correction: -0.034723
       DOS:  cpu time    0.0339: real time    0.0340
    CHARGE:  cpu time    0.0221: real time    0.0221
    MIXING:  cpu time    0.0006: real time    0.0006
    --------------------------------------------
      LOOP:  cpu time    0.6390: real time    0.6412

 eigenvalue-minimisations  :  3912
 total energy-change (2. order) :-0.8158980E-05  (-0.5039945E-06)
 number of electron      27.9999985 magnetization       4.4056489
 augmentation part       16.8359652 magnetization       3.4847041

 Broyden mixing:
  rms(total) = 0.95627E-03    rms(broyden)= 0.95626E-03
  rms(prec ) = 0.13558E-02
  weight for this iteration     100.00

 eigenvalues of (default mixing * dielectric matrix)
  average eigenvalue GAMMA=   1.2319
  2.3902  2.3902  1.0836  0.7901  0.7161  0.6266  0.6266

 Free energy of the ion-electron system (eV)
  ---------------------------------------------------
  alpha Z        PSCENC =       218.87048721
  Ewald energy   TEWEN  =     -3616.56080017
  -Hartree energ DENC   =     -1089.91653736
  -exchange      EXHF   =         0.00000000
  -V(xc)+E(xc)   XCENC  =       140.87596310
  PAW double counting   =      4375.49265510    -4560.83688761
  entropy T*S    EENTRO =         0.00000000
  eigenvalues    EBANDS =      -399.28487104
  atomic energy  EATOM  =      4914.84533492
  Solvation  Ediel_sol  =         0.00000000
  ---------------------------------------------------
  free energy    TOTEN  =       -16.51465585 eV

  energy without entropy =      -16.51465585  energy(sigma->0) =      -16.51465585


--------------------------------------------------------------------------------------------------------




--------------------------------------- Iteration      1(  13)  ---------------------------------------


    POTLOK:  cpu time    0.0104: real time    0.0108
    SETDIJ:  cpu time    0.0053: real time    0.0053
     EDDAV:  cpu time    0.5071: real time    0.5085
 BZINTS: Fermi energy:  9.622543; 28.000000 electrons
         Band energy:-399.272376;  BLOECHL correction: -0.034715
       DOS:  cpu time    0.0339: real time    0.0340
    CHARGE:  cpu time    0.0219: real time    0.0220
    MIXING:  cpu time    0.0005: real time    0.0005
    --------------------------------------------
      LOOP:  cpu time    0.5792: real time    0.5811

 eigenvalue-minimisations  :  3504
 total energy-change (2. order) : 0.6739810E-05  (-0.1298120E-06)
 number of electron      27.9999985 magnetization       4.4054495
 augmentation part       16.8356615 magnetization       3.4843946

 Broyden mixing:
  rms(total) = 0.24908E-03    rms(broyden)= 0.24908E-03
  rms(prec ) = 0.34016E-03
  weight for this iteration     100.00

 eigenvalues of (default mixing * dielectric matrix)
  average eigenvalue GAMMA=   1.2901
  2.5184  2.4446  1.4845  1.0644  0.8085  0.6259  0.6873  0.6873

 Free energy of the ion-electron system (eV)
  ---------------------------------------------------
  alpha Z        PSCENC =       218.87048721
  Ewald energy   TEWEN  =     -3616.56080017
  -Hartree energ DENC   =     -1089.92346200
  -exchange      EXHF   =         0.00000000
  -V(xc)+E(xc)   XCENC  =       140.87585691
  PAW double counting   =      4375.61885132    -4560.96854158
  entropy T*S    EENTRO =         0.00000000
  eigenvalues    EBANDS =      -399.27237572
  atomic energy  EATOM  =      4914.84533492
  Solvation  Ediel_sol  =         0.00000000
  ---------------------------------------------------
  free energy    TOTEN  =       -16.51464911 eV

  energy without entropy =      -16.51464911  energy(sigma->0) =      -16.51464911


--------------------------------------------------------------------------------------------------------




--------------------------------------- Iteration      1(  14)  ---------------------------------------


    POTLOK:  cpu time    0.0102: real time    0.0104
    SETDIJ:  cpu time    0.0052: real time    0.0053
     EDDAV:  cpu time    0.4337: real time    0.4348
 BZINTS: Fermi energy:  9.622786; 28.000000 electrons
         Band energy:-399.267469;  BLOECHL correction: -0.034713
       DOS:  cpu time    0.0330: real time    0.0331
    CHARGE:  cpu time    0.0216: real time    0.0217
    MIXING:  cpu time    0.0006: real time    0.0006
    --------------------------------------------
      LOOP:  cpu time    0.5043: real time    0.5058

 eigenvalue-minimisations  :  2736
 total energy-change (2. order) : 0.1562672E-05  (-0.1558765E-07)
 number of electron      27.9999985 magnetization       4.4054670
 augmentation part       16.8355460 magnetization       3.4843782

 Broyden mixing:
  rms(total) = 0.65661E-04    rms(broyden)= 0.65658E-04
  rms(prec ) = 0.86118E-04
  weight for this iteration     100.00

 eigenvalues of (default mixing * dielectric matrix)
  average eigenvalue GAMMA=   1.2120
  2.6077  2.4652  1.2903  1.0505  0.8270  0.6324  0.6635  0.6855  0.6855

 Free energy of the ion-electron system (eV)
  ---------------------------------------------------
  alpha Z        PSCENC =       218.87048721
  Ewald energy   TEWEN  =     -3616.56080017
  -Hartree energ DENC   =     -1089.92588928
  -exchange      EXHF   =         0.00000000
  -V(xc)+E(xc)   XCENC  =       140.87568964
  PAW double counting   =      4375.62002561    -4560.97202605
  entropy T*S    EENTRO =         0.00000000
  eigenvalues    EBANDS =      -399.26746942
  atomic energy  EATOM  =      4914.84533492
  Solvation  Ediel_sol  =         0.00000000
  ---------------------------------------------------
  free energy    TOTEN  =       -16.51464755 eV

  energy without entropy =      -16.51464755  energy(sigma->0) =      -16.51464755


--------------------------------------------------------------------------------------------------------




--------------------------------------- Iteration      1(  15)  ---------------------------------------


    POTLOK:  cpu time    0.0103: real time    0.0104
    SETDIJ:  cpu time    0.0052: real time    0.0052
     EDDAV:  cpu time    0.3224: real time    0.3231
 BZINTS: Fermi energy:  9.622751; 28.000000 electrons
         Band energy:-399.268388;  BLOECHL correction: -0.034713
       DOS:  cpu time    0.0339: real time    0.0340
    --------------------------------------------
      LOOP:  cpu time    0.3718: real time    0.3728

 eigenvalue-minimisations  :  1704
 total energy-change (2. order) :-0.1559238E-07  (-0.1122762E-08)
 number of electron      27.9999985 magnetization       4.4054670
 augmentation part       16.8355460 magnetization       3.4843782

 Free energy of the ion-electron system (eV)
  ---------------------------------------------------
  alpha Z        PSCENC =       218.87048721
  Ewald energy   TEWEN  =     -3616.56080017
  -Hartree energ DENC   =     -1089.92550224
  -exchange      EXHF   =         0.00000000
  -V(xc)+E(xc)   XCENC  =       140.87572187
  PAW double counting   =      4375.61534308    -4560.96684389
  entropy T*S    EENTRO =         0.00000000
  eigenvalues    EBANDS =      -399.26838834
  atomic energy  EATOM  =      4914.84533492
  Solvation  Ediel_sol  =         0.00000000
  ---------------------------------------------------
  free energy    TOTEN  =       -16.51464756 eV

  energy without entropy =      -16.51464756  energy(sigma->0) =      -16.51464756


--------------------------------------------------------------------------------------------------------




 average (electrostatic) potential at core
  the test charge radii are     0.9500
  (the norm of the test charge is              1.0000)
       1 -73.6647       2 -73.6647
 
 
 
 E-fermi :   9.6228     XC(G=0): -13.6241     alpha+bet :-17.4163


 spin component 1

 k-point     1 :       0.0500    0.0500    0.0500
  band No.  band energies     occupation 
      1     -44.5603      1.00000
      2     -44.5603      1.00000
      3     -44.5460      1.00000
      4     -44.2893      1.00000
      5     -44.2745      1.00000
      6     -44.2745      1.00000
      7       1.3982      1.00000
      8       4.9383      1.00000
      9       4.9383      1.00000
     10       7.3048      1.00000
     11       7.3048      1.00000
     12       7.4309      1.00000
     13       8.5804      1.00000
     14       8.5804      1.00000
     15       9.4948      1.00000
     16       9.6872      0.60082
     17       9.6872      0.00979
     18      19.1998      0.00000
     19      19.1998      0.00000
     20      19.4418      0.00000
     21      25.8103      0.00000
     22      25.8103      0.00000
     23      30.6974      0.00000
     24      33.3488      0.00000

 k-point     2 :       0.1500    0.0500    0.0500
  band No.  band energies     occupation 
      1     -44.5663      1.00000
      2     -44.5455      1.00000
      3     -44.5239      1.00000
      4     -44.3210      1.00000
      5     -44.2878      1.00000
      6     -44.2801      1.00000
      7       1.8019      1.00000
      8       5.1062      1.00000
      9       5.1084      1.00000
     10       7.2463      1.00000
     11       7.2946      1.00000
     12       7.5991      1.00000
     13       8.4143      1.00000
     14       8.6554      1.00000
     15       9.1041      1.00000
     16       9.3726      1.02104
     17       9.6658      0.13615
     18      17.0990      0.00000
     19      19.9187      0.00000
     20      20.0958      0.00000
     21      25.9619      0.00000
     22      27.1440      0.00000
     23      31.5526      0.00000
     24      32.1500      0.00000

 k-point     3 :       0.2500    0.0500    0.0500
  band No.  band energies     occupation 
      1     -44.5635      1.00000
      2     -44.5177      1.00000
      3     -44.4932      1.00000
      4     -44.3688      1.00000
      5     -44.3131      1.00000
      6     -44.3001      1.00000
      7       2.5674      1.00000
      8       5.3676      1.00000
      9       5.4274      1.00000
     10       7.2424      1.00000
     11       7.2874      1.00000
     12       7.8416      1.00000
     13       8.1079      1.00000
     14       8.6067      1.00000
     15       8.7947      1.00000
     16       8.8890      1.00000
     17       9.4859      1.03923
     18      14.5757      0.00000
     19      21.1879      0.00000
     20      21.3586      0.00000
     21      26.2946      0.00000
     22      27.9719      0.00000
     23      29.6289      0.00000
     24      31.2961      0.00000

 k-point     4 :       0.3500    0.0500    0.0500
  band No.  band energies     occupation 
      1     -44.5490      1.00000
      2     -44.4799      1.00000
      3     -44.4552      1.00000
      4     -44.4241      1.00000
      5     -44.3485      1.00000
      6     -44.3314      1.00000
      7       3.5895      1.00000
      8       5.5403      1.00000
      9       5.8725      1.00000
     10       7.2458      1.00000
     11       7.3213      1.00000
     12       7.7680      1.00000
     13       8.1304      1.00000
     14       8.1503      1.00000
     15       8.3930      1.00000
     16       9.0193      1.00000
     17       9.2004      1.03866
     18      12.2834      0.00000
     19      22.7946      0.00000
     20      23.0074      0.00000
     21      26.8755      0.00000
     22      27.8749      0.00000
     23      28.6105      0.00000
     24      29.1475      0.00000

 k-point     5 :       0.4500    0.0500    0.0500
  band No.  band energies     occupation 
      1     -44.5203      1.00000
      2     -44.4772      1.00000
      3     -44.4361      1.00000
      4     -44.4130      1.00000
      5     -44.3908      1.00000
      6     -44.3704      1.00000
      7       4.6412      1.00000
      8       5.3583      1.00000
      9       6.3947      1.00000
     10       6.9174      1.00000
     11       7.4991      1.00000
     12       7.7311      1.00000
     13       7.7625      1.00000
     14       7.9855      1.00000
     15       8.4991      1.00000
     16       8.8574      1.00000
     17       9.4833      0.98552
     18      10.5198      0.00000
     19      24.5325      0.00000
     20      24.9047      0.00000
     21      26.2268      0.00000
     22      26.9673      0.00000
     23      27.8213      0.00000
     24      29.2509      0.00000

 k-point     6 :       0.1500    0.1500    0.0500
  band No.  band energies     occupation 
      1     -44.5804      1.00000
      2     -44.5368      1.00000
      3     -44.4916      1.00000
      4     -44.3625      1.00000
      5     -44.2980      1.00000
      6     -44.2746      1.00000
      7       2.1897      1.00000
      8       5.2391      1.00000
      9       5.2979      1.00000
     10       7.0937      1.00000
     11       7.2374      1.00000
     12       7.8700      1.00000
     13       8.4386      1.00000
     14       8.6106      1.00000
     15       8.6247      1.00000
     16       9.1497      1.00691
     17       9.7348      0.03141
     18      17.1961      0.00000
     19      18.2811      0.00000
     20      20.6510      0.00000
     21      26.6284      0.00000
     22      28.5394      0.00000
     23      29.9221      0.00000
     24      31.9696      0.00000

 k-point     7 :       0.2500    0.1500    0.0500
  band No.  band energies     occupation 
      1     -44.5896      1.00000
      2     -44.5112      1.00000
      3     -44.4538      1.00000
      4     -44.4172      1.00000
      5     -44.3210      1.00000
      6     -44.2820      1.00000
      7       2.9161      1.00000
      8       5.4554      1.00000
      9       5.6207      1.00000
     10       6.9882      1.00000
     11       7.1824      1.00000
     12       8.1058      1.00000
     13       8.2002      1.00000
     14       8.2825      1.00000
     15       8.7217      1.00000
     16       8.7244      1.00000
     17       9.6886      0.28924
     18      14.9840      0.00000
     19      19.0122      0.00000
     20      21.7958      0.00000
     21      27.0200      0.00000
     22      27.7479      0.00000
     23      29.9240      0.00000
     24      30.6413      0.00000

 k-point     8 :       0.3500    0.1500    0.0500
  band No.  band energies     occupation 
      1     -44.5855      1.00000
      2     -44.4757      1.00000
      3     -44.4750      1.00000
      4     -44.4131      1.00000
      5     -44.3534      1.00000
      6     -44.3030      1.00000
      7       3.8582      1.00000
      8       5.5955      1.00000
      9       6.0117      1.00000
     10       6.9645      1.00000
     11       7.1189      1.00000
     12       7.6671      1.00000
     13       8.0932      1.00000
     14       8.3377      1.00000
     15       8.5643      1.00000
     16       8.9633      1.00000
     17       9.4969      0.92395
     18      12.6534      0.00000
     19      20.3763      0.00000
     20      23.3122      0.00000
     21      25.6605      0.00000
     22      27.5891      0.00000
     23      28.7792      0.00000
     24      30.9265      0.00000

 k-point     9 :       0.4500    0.1500    0.0500
  band No.  band energies     occupation 
      1     -44.5646      1.00000
      2     -44.5265      1.00000
      3     -44.4347      1.00000
      4     -44.3925      1.00000
      5     -44.3722      1.00000
      6     -44.3343      1.00000
      7       4.7819      1.00000
      8       5.4046      1.00000
      9       6.4367      1.00000
     10       6.8150      1.00000
     11       7.1498      1.00000
     12       7.3557      1.00000
     13       8.0550      1.00000
     14       8.1286      1.00000
     15       8.8894      1.00000
     16       9.2082      1.00000
     17       9.5413      0.77848
     18      10.7645      0.00000
     19      21.9650      0.00000
     20      23.7294      0.00000
     21      25.0474      0.00000
     22      26.8832      0.00000
     23      28.4947      0.00000
     24      29.8474      0.00000

 k-point    10 :       0.2500    0.2500    0.0500
  band No.  band energies     occupation 
      1     -44.6128      1.00000
      2     -44.4905      1.00000
      3     -44.4769      1.00000
      4     -44.4109      1.00000
      5     -44.3387      1.00000
      6     -44.2747      1.00000
      7       3.5390      1.00000
      8       5.5105      1.00000
      9       6.0142      1.00000
     10       6.7714      1.00000
     11       7.1537      1.00000
     12       7.5987      1.00000
     13       8.4263      1.00000
     14       8.4288      1.00000
     15       8.6230      1.00000
     16       8.6649      1.00000
     17       9.8080     -0.03392
     18      14.8632      0.00000
     19      17.4659      0.00000
     20      22.7549      0.00000
     21      25.3835      0.00000
     22      27.3663      0.00000
     23      30.0596      0.00000
     24      32.3852      0.00000

 k-point    11 :       0.3500    0.2500    0.0500
  band No.  band energies     occupation 
      1     -44.6220      1.00000
      2     -44.5351      1.00000
      3     -44.4617      1.00000
      4     -44.3694      1.00000
      5     -44.3641      1.00000
      6     -44.2819      1.00000
      7       4.2637      1.00000
      8       5.4678      1.00000
      9       6.4673      1.00000
     10       6.6639      1.00000
     11       7.1893      1.00000
     12       7.2436      1.00000
     13       8.2728      1.00000
     14       8.4046      1.00000
     15       8.8097      1.00000
     16       9.0699      1.02187
     17       9.7581      0.00398
     18      13.0484      0.00000
     19      18.1036      0.00000
     20      23.1680      0.00000
     21      24.0663      0.00000
     22      27.8481      0.00000
     23      28.7852      0.00000
     24      31.4421      0.00000

 k-point    12 :       0.4500    0.2500    0.0500
  band No.  band energies     occupation 
      1     -44.6123      1.00000
      2     -44.5824      1.00000
      3     -44.4286      1.00000
      4     -44.3950      1.00000
      5     -44.3321      1.00000
      6     -44.3020      1.00000
      7       4.8667      1.00000
      8       5.2597      1.00000
      9       6.6822      1.00000
     10       6.7709      1.00000
     11       7.0122      1.00000
     12       7.2243      1.00000
     13       8.3125      1.00000
     14       8.3954      1.00000
     15       9.1812      1.00000
     16       9.5469      0.95175
     17       9.7288      0.02976
     18      11.1095      0.00000
     19      19.4889      0.00000
     20      21.1932      0.00000
     21      25.5959      0.00000
     22      27.2069      0.00000
     23      28.6471      0.00000
     24      29.8693      0.00000

 k-point    13 :       0.3500    0.3500    0.0500
  band No.  band energies     occupation 
      1     -44.6451      1.00000
      2     -44.5896      1.00000
      3     -44.4424      1.00000
      4     -44.3796      1.00000
      5     -44.3310      1.00000
      6     -44.2748      1.00000
      7       4.6033      1.00000
      8       5.2501      1.00000
      9       6.4672      1.00000
     10       6.7900      1.00000
     11       7.0689      1.00000
     12       7.8006      1.00000
     13       8.3289      1.00000
     14       8.5819      1.00000
     15       8.7314      1.00000
     16       9.5046      0.96285
     17       9.8585     -0.00497
     18      12.6727      0.00000
     19      17.0755      0.00000
     20      20.9327      0.00000
     21      25.1103      0.00000
     22      28.2080      0.00000
     23      28.4081      0.00000
     24      30.7492      0.00000

 k-point    14 :       0.4500    0.3500    0.0500
  band No.  band energies     occupation 
      1     -44.6484      1.00000
      2     -44.6293      1.00000
      3     -44.4206      1.00000
      4     -44.3989      1.00000
      5     -44.3011      1.00000
      6     -44.2817      1.00000
      7       4.8277      1.00000
      8       5.0274      1.00000
      9       6.4159      1.00000
     10       6.5253      1.00000
     11       7.6336      1.00000
     12       8.0157      1.00000
     13       8.4771      1.00000
     14       8.6083      1.00000
     15       9.2345      1.00000
     16       9.7476      0.31700
     17      10.0491      0.00000
     18      11.2876      0.00000
     19      17.6524      0.00000
     20      19.0566      0.00000
     21      26.3162      0.00000
     22      27.4992      0.00000
     23      28.8185      0.00000
     24      29.7274      0.00000

 k-point    15 :       0.4500    0.4500    0.0500
  band No.  band energies     occupation 
      1     -44.6650      1.00000
      2     -44.6585      1.00000
      3     -44.4122      1.00000
      4     -44.4048      1.00000
      5     -44.2816      1.00000
      6     -44.2749      1.00000
      7       4.7955      1.00000
      8       4.8569      1.00000
      9       6.2866      1.00000
     10       6.3241      1.00000
     11       8.3606      1.00000
     12       8.5983      1.00000
     13       8.6194      1.00000
     14       8.7803      1.00000
     15       9.2765      1.00000
     16       9.7026      0.28327
     17      10.4353      0.00000
     18      10.9859      0.00000
     19      16.9431      0.00000
     20      17.5292      0.00000
     21      27.0345      0.00000
     22      27.4880      0.00000
     23      29.0850      0.00000
     24      29.4301      0.00000

 k-point    16 :       0.1500    0.1500    0.1500
  band No.  band energies     occupation 
      1     -44.5646      1.00000
      2     -44.5646      1.00000
      3     -44.4558      1.00000
      4     -44.4000      1.00000
      5     -44.2888      1.00000
      6     -44.2888      1.00000
      7       2.5670      1.00000
      8       5.4264      1.00000
      9       5.4264      1.00000
     10       7.0362      1.00000
     11       7.0362      1.00000
     12       8.0861      1.00000
     13       8.1861      1.00000
     14       8.5282      1.00000
     15       8.5282      1.00000
     16       9.4250      0.99979
     17       9.4250      1.11234
     18      17.8414      0.00000
     19      17.8414      0.00000
     20      19.2371      0.00000
     21      28.7875      0.00000
     22      28.7875      0.00000
     23      29.7386      0.00000
     24      29.7386      0.00000

 k-point    17 :       0.2500    0.1500    0.1500
  band No.  band energies     occupation 
      1     -44.5849      1.00000
      2     -44.5349      1.00000
      3     -44.4514      1.00000
      4     -44.4177      1.00000
      5     -44.3160      1.00000
      6     -44.2882      1.00000
      7       3.2657      1.00000
      8       5.6656      1.00000
      9       5.6998      1.00000
     10       6.9036      1.00000
     11       6.9350      1.00000
     12       7.5733      1.00000
     13       8.3824      1.00000
     14       8.5851      1.00000
     15       8.6827      1.00000
     16       8.9720      1.00000
     17       9.5064      0.95269
     18      15.4703      0.00000
     19      18.9553      0.00000
     20      19.8769      0.00000
     21      27.5257      0.00000
     22      28.5416      0.00000
     23      29.3031      0.00000
     24      30.5092      0.00000

 k-point    18 :       0.3500    0.1500    0.1500
  band No.  band energies     occupation 
      1     -44.5910      1.00000
      2     -44.5043      1.00000
      3     -44.4945      1.00000
      4     -44.3809      1.00000
      5     -44.3539      1.00000
      6     -44.2989      1.00000
      7       4.1489      1.00000
      8       5.8193      1.00000
      9       5.9788      1.00000
     10       6.7953      1.00000
     11       6.9294      1.00000
     12       7.2680      1.00000
     13       8.2261      1.00000
     14       8.5460      1.00000
     15       8.8083      1.00000
     16       9.1281      1.00000
     17       9.4068      0.92705
     18      13.1245      0.00000
     19      20.3549      0.00000
     20      21.0652      0.00000
     21      25.4925      0.00000
     22      26.4578      0.00000
     23      30.1154      0.00000
     24      31.4558      0.00000

 k-point    19 :       0.4500    0.1500    0.1500
  band No.  band energies     occupation 
      1     -44.5794      1.00000
      2     -44.5494      1.00000
      3     -44.4477      1.00000
      4     -44.3992      1.00000
      5     -44.3474      1.00000
      6     -44.3193      1.00000
      7       4.9805      1.00000
      8       5.5624      1.00000
[...]
     19      18.3223      0.00000
     20      20.7972      0.00000
     21      22.3837      0.00000
     22      24.8363      0.00000
     23      26.2510      0.00000
     24      30.1363      0.00000

 k-point    30 :       0.4500    0.3500    0.2500
  band No.  band energies     occupation 
      1     -42.0276      1.00000
      2     -42.0273      1.00000
      3     -41.8762      1.00000
      4     -41.8249      1.00000
      5     -41.7187      1.00000
      6     -41.7144      1.00000
      7       6.7330      1.00000
      8       7.0451      1.00000
      9       7.9675      1.00000
     10       7.9784      1.00000
     11       8.3646      1.00000
     12       8.4914      1.00000
     13      11.1843      0.00000
     14      11.2348      0.00000
     15      11.5151      0.00000
     16      11.5335      0.00000
     17      13.8174      0.00000
     18      14.8899      0.00000
     19      19.1263      0.00000
     20      20.5769      0.00000
     21      21.9130      0.00000
     22      23.4383      0.00000
     23      26.7663      0.00000
     24      28.2366      0.00000

 k-point    31 :       0.4500    0.4500    0.2500
  band No.  band energies     occupation 
      1     -42.0355      1.00000
      2     -42.0348      1.00000
      3     -41.8567      1.00000
      4     -41.8360      1.00000
      5     -41.7251      1.00000
      6     -41.7213      1.00000
      7       6.8530      1.00000
      8       6.9336      1.00000
      9       7.8847      1.00000
     10       7.8997      1.00000
     11       8.6615      1.00000
     12       8.7307      1.00000
     13      11.3010      0.00000
     14      11.3257      0.00000
     15      11.5266      0.00000
     16      11.5392      0.00000
     17      14.4942      0.00000
     18      15.0171      0.00000
     19      18.3898      0.00000
     20      19.0495      0.00000
     21      23.0063      0.00000
     22      24.1214      0.00000
     23      25.2334      0.00000
     24      26.3295      0.00000

 k-point    32 :       0.3500    0.3500    0.3500
  band No.  band energies     occupation 
      1     -42.0116      1.00000
      2     -41.9613      1.00000
      3     -41.9613      1.00000
      4     -41.7727      1.00000
      5     -41.7727      1.00000
      6     -41.7226      1.00000
      7       6.9266      1.00000
      8       7.5004      1.00000
      9       7.9277      1.00000
     10       7.9277      1.00000
     11       8.0743      1.00000
     12       8.0743      1.00000
     13      11.3765      0.00000
     14      11.3765      0.00000
     15      11.4154      0.00000
     16      11.4154      0.00000
     17      13.8657      0.00000
     18      17.4975      0.00000
     19      17.4975      0.00000
     20      19.8866      0.00000
     21      22.8237      0.00000
     22      22.8237      0.00000
     23      24.1464      0.00000
     24      28.0399      0.00000

 k-point    33 :       0.4500    0.3500    0.3500
  band No.  band energies     occupation 
      1     -42.0063      1.00000
      2     -41.9904      1.00000
      3     -41.8986      1.00000
      4     -41.8336      1.00000
      5     -41.7564      1.00000
      6     -41.7376      1.00000
      7       7.2800      1.00000
      8       7.3822      1.00000
      9       7.8723      1.00000
     10       7.9207      1.00000
     11       8.0469      1.00000
     12       8.2172      1.00000
     13      11.3598      0.00000
     14      11.3851      0.00000
     15      11.5029      0.00000
     16      11.5142      0.00000
     17      14.8065      0.00000
     18      16.0279      0.00000
     19      19.1310      0.00000
     20      20.4300      0.00000
     21      20.9116      0.00000
     22      21.6696      0.00000
     23      24.5511      0.00000
     24      26.0870      0.00000

 k-point    34 :       0.4500    0.4500    0.3500
  band No.  band energies     occupation 
      1     -41.9891      1.00000
      2     -41.9779      1.00000
      3     -41.8848      1.00000
      4     -41.8486      1.00000
      5     -41.7790      1.00000
      6     -41.7644      1.00000
      7       7.4285      1.00000
      8       7.4422      1.00000
      9       7.8025      1.00000
     10       7.8455      1.00000
     11       8.1732      1.00000
     12       8.2615      1.00000
     13      11.4438      0.00000
     14      11.4546      0.00000
     15      11.5335      0.00000
     16      11.5378      0.00000
     17      15.8062      0.00000
     18      16.5887      0.00000
     19      18.5410      0.00000
     20      19.5008      0.00000
     21      21.0127      0.00000
     22      22.1185      0.00000
     23      22.9697      0.00000
     24      24.1596      0.00000

 k-point    35 :       0.4500    0.4500    0.4500
  band No.  band energies     occupation 
      1     -41.9442      1.00000
      2     -41.9118      1.00000
      3     -41.9118      1.00000
      4     -41.8432      1.00000
      5     -41.8432      1.00000
      6     -41.8107      1.00000
      7       7.6627      1.00000
      8       7.8093      1.00000
      9       7.8093      1.00000
     10       7.9082      1.00000
     11       7.9535      1.00000
     12       7.9535      1.00000
     13      11.5394      0.00000
     14      11.5394      0.00000
     15      11.5425      0.00000
     16      11.5425      0.00000
     17      17.1206      0.00000
     18      18.3148      0.00000
     19      18.3148      0.00000
     20      20.0021      0.00000
     21      20.1677      0.00000
     22      20.1677      0.00000
     23      21.5184      0.00000
     24      22.3099      0.00000


--------------------------------------------------------------------------------------------------------


 soft charge-density along one line, spin component           1
         0         1         2         3         4         5         6         7         8         9
 total charge-density along one line
 
 soft charge-density along one line, spin component           2
         0         1         2         3         4         5         6         7         8         9
 total charge-density along one line
 
 pseudopotential strength for first ion, spin component:           1
-44.857  -0.000  -0.000   7.570   0.000   0.000  -0.000  -0.000
 -0.000 -44.857  -0.000   0.000   7.570   0.000  -0.000  -0.000
 -0.000  -0.000 -44.857   0.000   0.000   7.570  -0.000  -0.000
  7.570   0.000   0.000   5.638   0.000   0.000   0.000   0.000
  0.000   7.570   0.000   0.000   5.638   0.000   0.000   0.000
  0.000   0.000   7.570   0.000   0.000   5.638   0.000   0.000
 -0.000  -0.000  -0.000   0.000   0.000   0.000  -1.981  -0.000
 -0.000  -0.000  -0.000   0.000   0.000   0.000  -0.000  -1.981
  0.000  -0.000   0.000  -0.000   0.000  -0.000   0.000  -0.000
 -0.000  -0.000  -0.000   0.000   0.000   0.000  -0.000  -0.000
  0.000  -0.000  -0.000  -0.000   0.000   0.000  -0.000   0.000
 -0.000  -0.000  -0.000   0.000   0.000   0.000  -2.495  -0.000
 -0.000  -0.000  -0.000   0.000   0.000   0.000  -0.000  -2.495
  0.000  -0.000   0.000  -0.000   0.000  -0.000   0.000  -0.000
 -0.000  -0.000  -0.000   0.000   0.000   0.000  -0.000  -0.000
  0.000  -0.000   0.000  -0.000   0.000   0.000  -0.000   0.000
  0.000   0.000   0.000   0.000   0.000   0.000   0.000   0.000
  0.000   0.000   0.000   0.000   0.000   0.000   0.000   0.000
 pseudopotential strength for first ion, spin component:           2
-42.886  -0.000  -0.000   6.737   0.000   0.000  -0.000  -0.000
 -0.000 -42.886  -0.000   0.000   6.737   0.000  -0.000  -0.000
 -0.000  -0.000 -42.886   0.000   0.000   6.737  -0.000  -0.000
  6.737   0.000   0.000   5.866   0.000   0.000   0.000   0.000
  0.000   6.737   0.000   0.000   5.866   0.000   0.000   0.000
  0.000   0.000   6.737   0.000   0.000   5.866   0.000   0.000
 -0.000  -0.000  -0.000   0.000   0.000   0.000  -0.455  -0.000
 -0.000  -0.000  -0.000   0.000   0.000   0.000  -0.000  -0.455
  0.000  -0.000   0.000  -0.000   0.000  -0.000   0.000  -0.000
 -0.000  -0.000  -0.000   0.000   0.000   0.000  -0.000  -0.000
  0.000  -0.000  -0.000  -0.000   0.000   0.000  -0.000   0.000
 -0.000  -0.000  -0.000   0.000   0.000   0.000  -0.995  -0.000
 -0.000  -0.000  -0.000   0.000   0.000   0.000  -0.000  -0.995
  0.000  -0.000   0.000  -0.000   0.000  -0.000   0.000  -0.000
 -0.000  -0.000  -0.000   0.000   0.000   0.000  -0.000  -0.000
  0.000  -0.000  -0.000  -0.000   0.000   0.000  -0.000   0.000
  0.000   0.000   0.000   0.000   0.000   0.000   0.000   0.000
  0.000   0.000   0.000   0.000   0.000   0.000   0.000   0.000
 total augmentation occupancy for first ion, spin component:           1
  1.992   0.000   0.000  -0.026  -0.000   0.000   0.000   0.000  -0.000   0.000   0.000   0.000   0.000  -0.000   0.000   0.000
  0.000   1.992   0.000   0.000  -0.026   0.000  -0.000   0.000   0.000   0.000   0.000   0.000   0.000   0.000   0.000  -0.000
  0.000   0.000   1.992   0.000   0.000  -0.026   0.000   0.000  -0.000   0.000   0.000   0.000   0.000   0.000   0.000   0.000
 -0.026  -0.000  -0.000   0.201  -0.000  -0.000  -0.000  -0.000   0.000  -0.000  -0.000   0.000   0.000   0.000   0.000  -0.000
 -0.000  -0.026   0.000  -0.000   0.201   0.000  -0.000  -0.000   0.000  -0.000   0.000   0.000   0.000   0.000   0.000   0.000
 -0.000   0.000  -0.026  -0.000   0.000   0.201  -0.000   0.000   0.000  -0.000   0.000   0.000   0.000   0.000   0.000   0.000
  0.000   0.000   0.000  -0.000   0.000  -0.000   2.169   0.000   0.000   0.000  -0.000  -1.222   0.000   0.000   0.000   0.000
  0.000   0.000   0.000   0.000   0.000  -0.000   0.000   2.169   0.000   0.000   0.000  -0.000  -1.222   0.000  -0.000   0.000
  0.000   0.000   0.000   0.000   0.000   0.000   0.000   0.000   3.408   0.000  -0.000   0.000  -0.000  -2.184  -0.000   0.000
 -0.000   0.000   0.000  -0.000   0.000   0.000   0.000  -0.000   0.000   2.169   0.000   0.000  -0.000   0.000  -1.222   0.000
  0.000  -0.000  -0.000  -0.000  -0.000   0.000  -0.000  -0.000  -0.000   0.000   3.408  -0.000  -0.000  -0.000   0.000  -2.184
  0.000   0.000   0.000   0.000  -0.000   0.000  -1.222  -0.000  -0.000   0.000  -0.000   1.650   0.000  -0.000   0.000  -0.000
  0.000   0.000   0.000   0.000   0.000  -0.000   0.000  -1.222   0.000   0.000  -0.000   0.000   1.650   0.000   0.000   0.000
  0.000   0.000  -0.000   0.000   0.000   0.000   0.000   0.000  -2.184   0.000   0.000  -0.000   0.000   2.224   0.000   0.000
  0.000   0.000   0.000   0.000   0.000   0.000  -0.000   0.000   0.000  -1.222  -0.000  -0.000   0.000   0.000   1.650   0.000
  0.000   0.000   0.000   0.000   0.000   0.000  -0.000  -0.000  -0.000   0.000  -2.184  -0.000   0.000   0.000   0.000   2.224
  0.000   0.000   0.000  -0.000   0.000   0.000   0.000   0.000  -0.000   0.000  -0.000   0.000   0.000   0.000   0.000  -0.000
 -0.000  -0.000  -0.000   0.000  -0.000   0.000   0.000  -0.000  -0.000  -0.000  -0.000  -0.000   0.000  -0.000   0.000  -0.000
 total augmentation occupancy for first ion, spin component:           2
 -0.002   0.000   0.000  -0.009   0.000  -0.000   0.000   0.000  -0.000   0.000  -0.000   0.000   0.000  -0.000   0.000   0.000
  0.000  -0.002   0.000  -0.000  -0.009  -0.000   0.000   0.000   0.000   0.000   0.000   0.000   0.000   0.000   0.000   0.000
  0.000   0.000  -0.002  -0.000   0.000  -0.009   0.000   0.000   0.000   0.000  -0.000   0.000   0.000   0.000   0.000   0.000
 -0.009   0.000   0.000  -0.020   0.000   0.000   0.000   0.000   0.000  -0.000   0.000   0.000   0.000   0.000   0.000   0.000
  0.000  -0.009   0.000   0.000  -0.020   0.000   0.000   0.000   0.000   0.000  -0.000   0.000   0.000   0.000   0.000   0.000
  0.000  -0.000  -0.009   0.000  -0.000  -0.020   0.000   0.000   0.000   0.000  -0.000   0.000   0.000  -0.000   0.000   0.000
  0.000   0.000   0.000   0.000  -0.000   0.000   1.759  -0.000  -0.000  -0.000   0.000  -0.661   0.000  -0.000  -0.000   0.000
  0.000   0.000   0.000   0.000  -0.000   0.000   0.000   1.759  -0.000  -0.000   0.000  -0.000  -0.661  -0.000   0.000   0.000
  0.000   0.000   0.000   0.000   0.000  -0.000  -0.000  -0.000   2.822   0.000   0.000   0.000  -0.000  -1.163  -0.000  -0.000
  0.000   0.000   0.000   0.000  -0.000  -0.000  -0.000  -0.000   0.000   1.759  -0.000  -0.000  -0.000   0.000  -0.661   0.000
  0.000   0.000   0.000  -0.000   0.000   0.000   0.000   0.000  -0.000  -0.000   2.822  -0.000  -0.000  -0.000  -0.000  -1.163
  0.000   0.000   0.000   0.000   0.000   0.000  -0.661   0.000  -0.000  -0.000  -0.000  -0.006  -0.000  -0.000   0.000  -0.000
  0.000   0.000   0.000   0.000   0.000  -0.000   0.000  -0.661  -0.000   0.000  -0.000  -0.000  -0.006  -0.000  -0.000   0.000
 -0.000   0.000  -0.000  -0.000   0.000   0.000   0.000  -0.000  -1.163  -0.000  -0.000   0.000  -0.000   0.239   0.000   0.000
  0.000   0.000   0.000  -0.000   0.000   0.000  -0.000   0.000  -0.000  -0.661  -0.000  -0.000  -0.000   0.000  -0.006   0.000
  0.000   0.000   0.000  -0.000   0.000  -0.000   0.000   0.000  -0.000   0.000  -1.163   0.000  -0.000  -0.000   0.000   0.239
  0.000   0.000   0.000   0.000   0.000   0.000   0.000   0.000  -0.000  -0.000  -0.000   0.000  -0.000   0.000  -0.000  -0.000
  0.000  -0.000   0.000   0.000   0.000  -0.000  -0.000  -0.000  -0.000   0.000  -0.000  -0.000   0.000   0.000  -0.000   0.000


------------------------ aborting loop because EDIFF is reached ----------------------------------------


 


 total charge     
 
# of ion       s       p       d       tot
------------------------------------------
    1        0.385   6.378   6.075  12.838
    2        0.385   6.378   6.075  12.838
--------------------------------------------------
tot          0.770  12.756  12.150  25.675
 


 magnetization (x)
 
# of ion       s       p       d       tot
------------------------------------------
    1       -0.008  -0.042   2.292   2.243
    2       -0.008  -0.042   2.292   2.243
--------------------------------------------------
tot         -0.015  -0.083   4.584   4.485
 
    CHARGE:  cpu time    0.0204: real time    0.0204
    FORLOC:  cpu time    0.0002: real time    0.0002
    FORNL :  cpu time    0.1074: real time    0.1079
    STRESS:  cpu time    0.3206: real time    0.3214
    FORCOR:  cpu time    0.0100: real time    0.0100
    FORHAR:  cpu time    0.0012: real time    0.0012
    MIXING:  cpu time    0.0005: real time    0.0005
    OFIELD:  cpu time    0.0001: real time    0.0001

  FORCE on cell =-STRESS in cart. coord.  units (eV):
  Direction    XX          YY          ZZ          XY          YZ          ZX
  --------------------------------------------------------------------------------------
  Alpha Z   218.87049   218.87049   218.87049
  Ewald   -1205.52018 -1205.52018 -1205.52018    -0.00000    -0.00000    -0.00000
  Hartree   363.30853   363.30853   363.30853    -0.00000    -0.00000    -0.00000
  E(xc)    -179.77984  -179.77984  -179.77984    -0.00000    -0.00000    -0.00000
  Local     289.65460   289.65460   289.65460    -0.00000    -0.00000    -0.00000
  n-local   -60.13592   -54.13277   -50.51459     2.76471    -1.55672     0.58759
  augment   285.39458   285.39458   285.39458     0.00000     0.00000     0.00000
  Kinetic   283.96179   282.54419   281.79325     2.94643    -0.72065    -0.10191
  Fock        0.00000     0.00000     0.00000     0.00000     0.00000     0.00000
  -------------------------------------------------------------------------------------
  Total      -0.23316    -0.23316    -0.23316     0.00000     0.00000     0.00000
  in kB     -16.30754   -16.30754   -16.30754     0.00000     0.00000     0.00000
  external pressure =      -16.31 kB  Pullay stress =        0.00 kB


 VOLUME and BASIS-vectors are now :
 -----------------------------------------------------------------------------
  energy-cutoff  :      780.00
  volume of cell :       22.91
      direct lattice vectors                 reciprocal lattice vectors
     2.840052000  0.000000000  0.000000000     0.352106229  0.000000000  0.000000000
     0.000000000  2.840052000  0.000000000     0.000000000  0.352106229  0.000000000
     0.000000000  0.000000000  2.840052000     0.000000000  0.000000000  0.352106229

  length of vectors
     2.840052000  2.840052000  2.840052000     0.352106229  0.352106229  0.352106229


 FORCES acting on ions
    electron-ion (+dipol)            ewald-force                    non-local-force                 convergence-correction
 -----------------------------------------------------------------------------------------------
   -.691E-13 -.218E-13 -.475E-13   -.529E-15 -.103E-14 -.897E-14   0.000E+00 0.000E+00 0.000E+00   -.791E-13 0.292E-15 0.288E-14
   0.795E-12 0.747E-11 0.864E-11   0.472E-14 0.447E-14 0.926E-14   0.000E+00 -.323E-26 -.646E-26   0.347E-13 -.178E-13 -.110E-12
 -----------------------------------------------------------------------------------------------
   0.726E-12 0.745E-11 0.859E-11   0.419E-14 0.343E-14 0.284E-15   0.000E+00 -.323E-26 -.646E-26   -.443E-13 -.175E-13 -.107E-12
 
 
 POSITION                                       TOTAL-FORCE (eV/Angst)
 -----------------------------------------------------------------------------------
      0.00000      0.00000      0.00000        -0.000000      0.000000     -0.000000
      1.42003      1.42003      1.42003         0.000000     -0.000000      0.000000
 -----------------------------------------------------------------------------------
    total drift:                                0.000000      0.000000      0.000000


--------------------------------------------------------------------------------------------------------



  FREE ENERGIE OF THE ION-ELECTRON SYSTEM (eV)
  ---------------------------------------------------
  free  energy   TOTEN  =       -16.51464756 eV

  energy  without entropy=      -16.51464756  energy(sigma->0) =      -16.51464756
 


--------------------------------------------------------------------------------------------------------


    POTLOK:  cpu time    0.0154: real time    0.0154


--------------------------------------------------------------------------------------------------------


     LOOP+:  cpu time    9.0054: real time    9.0441
    4ORBIT:  cpu time    0.0000: real time    0.0000
 


 total charge     
 
# of ion       s       p       d       tot
------------------------------------------
    1        0.385   6.378   6.075  12.838
    2        0.385   6.378   6.075  12.838
--------------------------------------------------
tot          0.770  12.756  12.150  25.675
 


 magnetization (x)
 
# of ion       s       p       d       tot
------------------------------------------
    1       -0.008  -0.042   2.292   2.243
    2       -0.008  -0.042   2.292   2.243
--------------------------------------------------
tot         -0.015  -0.083   4.584   4.485
 
 BZINTS: Fermi energy:  9.622751; 28.000000 electrons
         Band energy:-399.268388;  BLOECHL correction: -0.034713

 total amount of memory used by VASP MPI-rank0    33979. kBytes
=======================================================================

   base      :      30000. kBytes
   nonlr-proj:        934. kBytes
   fftplans  :        476. kBytes
   grid      :       1141. kBytes
   one-center:         31. kBytes
   wavefun   :       1397. kBytes
 
  
  
 General timing and accounting informations for this job:
 ========================================================
  
                  Total CPU time used (sec):        9.788
                            User time (sec):        9.645
                          System time (sec):        0.143
                         Elapsed time (sec):        9.842
  
                   Maximum memory used (kb):       60548.
                   Average memory used (kb):           0.
  
                          Minor page faults:        14904
                          Major page faults:            0
                 Voluntary context switches:          164
