<?xml version="1.0" encoding="ISO-8859-1"?>
<modeling>
 <generator>
  <i name="program" type="string">vasp </i>
  <i name="version" type="string">5.4.4.18Apr17-6-g9f103f2a35  </i>
  <i name="subversion" type="string">(build Apr 28 2018 00:24:27) complex            parallel </i>
  <i name="platform" type="string">LinuxIFC </i>
  <i name="date" type="string">2021 09 06 </i>
  <i name="time" type="string">23:54:46 </i>
 </generator>
 <incar>
  <i type="string" name="PREC">accurate</i>
  <i type="string" name="ALGO"> Normal</i>
  <i type="int" name="ISPIN">     2</i>
  <i type="int" name="NELM">   100</i>
  <i type="int" name="IBRION">    -1</i>
  <i name="EDIFF">      0.00000010</i>
  <i type="int" name="NSW">     0</i>
  <i type="int" name="ISIF">     3</i>
  <i name="ENCUT">    780.00000000</i>
  <v name="MAGMOM">      5.00000000      5.00000000</v>
  <i type="string" name="LREAL"> Auto</i>
  <i type="int" name="ISMEAR">    -5</i>
  <i name="SIGMA">      0.05000000</i>
  <i type="logical" name="LWAVE"> F  </i>
  <i type="logical" name="LCHARG"> F  </i>
  <i type="logical" name="LVHAR"> F  </i>
  <i type="int" name="LORBIT">    11</i>
  <i type="logical" name="LASPH"> F  </i>
  <i type="logical" name="LAECHG"> F  </i>
  <v type="int" name="KPOINT_BSE">    -1     0     0     0</v>
  <i type="int" name="NELM">   100</i>
  <i type="logical" name="LASPH"> F  </i>
  <i type="int" name="LMAXTAU">     0</i>
 </incar>
 <structure name="primitive_cell" >
  <crystal>
   <varray name="basis" >
    <v>       1.42002600       1.42002600       1.42002600 </v>
    <v>       1.42002600      -1.42002600      -1.42002600 </v>
    <v>      -1.42002600       1.42002600      -1.42002600 </v>
   </varray>
   <i name="volume">     11.45378113 </i>
   <varray name="rec_basis" >
    <v>       0.35210623       0.35210623       0.00000000 </v>
    <v>       0.35210623       0.00000000      -0.35210623 </v>
    <v>       0.00000000       0.35210623      -0.35210623 </v>
   </varray>
  </crystal>
  <varray name="positions" >
   <v>       0.00000000       0.00000000       0.00000000 </v>
  </varray>
 </structure>
 <varray name="primitive_index" >
  <v type="int" >        1 </v>
 </varray>
 <kpoints>
  <generation param="Monkhorst-Pack">
   <v type="int" name="divisions">      10       10       10 </v>
   <v name="usershift">      0.00000000       0.00000000       0.00000000 </v>
   <v name="genvec1">      0.10000000       0.00000000       0.00000000 </v>
   <v name="genvec2">      0.00000000       0.10000000       0.00000000 </v>
   <v name="genvec3">      0.00000000       0.00000000       0.10000000 </v>
   <v name="shift">      0.50000000       0.50000000       0.50000000 </v>
  </generation>
  <varray name="kpointlist" >
   <v>       0.05000000       0.05000000       0.05000000 </v>
   <v>       0.15000000       0.05000000       0.05000000 </v>
   <v>       0.25000000       0.05000000       0.05000000 </v>
   <v>       0.35000000       0.05000000       0.05000000 </v>
   <v>       0.45000000       0.05000000       0.05000000 </v>
   <v>       0.15000000       0.15000000       0.05000000 </v>
   <v>       0.25000000       0.15000000       0.05000000 </v>
   <v>       0.35000000       0.15000000       0.05000000 </v>
   <v>       0.45000000       0.15000000       0.05000000 </v>
   <v>       0.25000000       0.25000000       0.05000000 </v>
   <v>       0.35000000       0.25000000       0.05000000 </v>
   <v>       0.45000000       0.25000000       0.05000000 </v>
   <v>       0.35000000       0.35000000       0.05000000 </v>
   <v>       0.45000000       0.35000000       0.05000000 </v>
   <v>       0.45000000       0.45000000       0.05000000 </v>
   <v>       0.15000000       0.15000000       0.15000000 </v>
   <v>       0.25000000       0.15000000       0.15000000 </v>
   <v>       0.35000000       0.15000000       0.15000000 </v>
   <v>       0.45000000       0.15000000       0.15000000 </v>
   <v>       0.25000000       0.25000000       0.15000000 </v>
   <v>       0.35000000       0.25000000       0.15000000 </v>
   <v>       0.45000000       0.25000000       0.15000000 </v>
   <v>       0.35000000       0.35000000       0.15000000 </v>
   <v>       0.45000000       0.35000000       0.15000000 </v>
   <v>       0.45000000       0.45000000       0.15000000 </v>
   <v>       0.25000000       0.25000000       0.25000000 </v>
   <v>       0.35000000       0.25000000       0.25000000 </v>
   <v>       0.45000000       0.25000000       0.25000000 </v>
   <v>       0.35000000       0.35000000       0.25000000 </v>
   <v>       0.45000000       0.35000000       0.25000000 </v>
   <v>       0.45000000       0.45000000       0.25000000 </v>
   <v>       0.35000000       0.35000000       0.35000000 </v>
   <v>       0.45000000       0.35000000       0.35000000 </v>
   <v>       0.45000000       0.45000000       0.35000000 </v>
   <v>       0.45000000       0.45000000       0.45000000 </v>
  </varray>
  <varray name="weights" >
   <v>       0.00800000 </v>
   <v>       0.02400000 </v>
   <v>       0.02400000 </v>
   <v>       0.02400000 </v>
   <v>       0.02400000 </v>
   <v>       0.02400000 </v>
   <v>       0.04800000 </v>
   <v>       0.04800000 </v>
   <v>       0.04800000 </v>
   <v>       0.02400000 </v>
   <v>       0.04800000 </v>
   <v>       0.04800000 </v>
   <v>       0.02400000 </v>
   <v>       0.04800000 </v>
   <v>       0.02400000 </v>
   <v>       0.00800000 </v>
   <v>       0.02400000 </v>
   <v>       0.02400000 </v>
   <v>       0.02400000 </v>
   <v>       0.02400000 </v>
   <v>       0.04800000 </v>
   <v>       0.04800000 </v>
   <v>       0.02400000 </v>
   <v>       0.04800000 </v>
   <v>       0.02400000 </v>
   <v>       0.00800000 </v>
   <v>       0.02400000 </v>
   <v>       0.02400000 </v>
   <v>       0.02400000 </v>
   <v>       0.04800000 </v>
   <v>       0.02400000 </v>
   <v>       0.00800000 </v>
   <v>       0.02400000 </v>
   <v>       0.02400000 </v>
   <v>       0.00800000 </v>
  </varray>
  <varray name="tetrahedronlist"  type="int" >
   <v type="int" >       24        1        2        2        6 </v>
   <v type="int" >       18        2        2        6        6 </v>
   <v type="int" >       12        2        6        6       16 </v>
   <v type="int" >       12        2        3        6        7 </v>
   <v type="int" >       24        2        6        6        7 </v>
   <v type="int" >       12        6        6        7       16 </v>
   <v type="int" >       24        3        6        7        7 </v>
   <v type="int" >       24        6        7        7       17 </v>
   <v type="int" >       24        6        7       16       17 </v>
   <v type="int" >       12        3        4        7        8 </v>
   <v type="int" >       24        3        7        7        8 </v>
   <v type="int" >       12        7        7        8       17 </v>
   <v type="int" >       24        4        7        8        8 </v>
   <v type="int" >       12        7        8        8       18 </v>
   <v type="int" >       12        7        8       17       18 </v>
   <v type="int" >       12        4        5        8        9 </v>
   <v type="int" >       24        4        8        8        9 </v>
   <v type="int" >       12        8        8        9       18 </v>
   <v type="int" >       24        5        8        9        9 </v>
   <v type="int" >       12        8        9        9       19 </v>
   <v type="int" >       12        8        9       18       19 </v>
   <v type="int" >       30        5        5        9        9 </v>
   <v type="int" >       36        5        9        9        9 </v>
   <v type="int" >       12        9        9        9       19 </v>
   <v type="int" >        6        9        9       19       19 </v>
   <v type="int" >       18        1        1        2        2 </v>
   <v type="int" >       24        1        2        2        2 </v>
   <v type="int" >       12        2        2        2        6 </v>
   <v type="int" >       12        6        7       10       16 </v>
   <v type="int" >       12        7       10       16       17 </v>
   <v type="int" >       12       10       16       17       20 </v>
   <v type="int" >       12        7        8       11       17 </v>
   <v type="int" >       12        7       10       11       17 </v>
   <v type="int" >       12       10       11       17       20 </v>
   <v type="int" >       12        8       11       17       18 </v>
   <v type="int" >       12       11       17       18       21 </v>
   <v type="int" >       12       11       17       20       21 </v>
   <v type="int" >       12        8        9       12       18 </v>
   <v type="int" >       12        8       11       12       18 </v>
   <v type="int" >       12       11       12       18       21 </v>
   <v type="int" >       12        9       12       18       19 </v>
   <v type="int" >       12       12       18       19       22 </v>
   <v type="int" >       12       12       18       21       22 </v>
   <v type="int" >       12        9        9       12       19 </v>
   <v type="int" >       12        9       12       12       19 </v>
   <v type="int" >       12       12       12       19       22 </v>
   <v type="int" >       12        9       12       19       19 </v>
   <v type="int" >       12       12       19       19       22 </v>
   <v type="int" >       12       12       19       22       22 </v>
   <v type="int" >       12        8        9       11       19 </v>
   <v type="int" >       12        9       11       12       19 </v>
   <v type="int" >       12       11       12       19       22 </v>
   <v type="int" >       12        8       11       18       19 </v>
   <v type="int" >       12       11       18       19       21 </v>
   <v type="int" >       12       11       19       21       22 </v>
   <v type="int" >       12        7        8       10       18 </v>
   <v type="int" >       12        8       10       11       18 </v>
   <v type="int" >       12       10       11       18       21 </v>
   <v type="int" >       12        7       10       17       18 </v>
   <v type="int" >       12       10       17       18       20 </v>
   <v type="int" >       12       10       18       20       21 </v>
   <v type="int" >       12        7        7       10       17 </v>
   <v type="int" >       12        7       10       17       20 </v>
   <v type="int" >       12        7       16       17       17 </v>
   <v type="int" >       12        7       17       17       20 </v>
   <v type="int" >       12        2        3        6       16 </v>
   <v type="int" >       12        3        6        7       16 </v>
   <v type="int" >       12        3        7       16       17 </v>
   <v type="int" >       12        2        2        3        6 </v>
   <v type="int" >       12        2        3        3        6 </v>
   <v type="int" >       12        3        3        6        7 </v>
   <v type="int" >       12        2        3        6        6 </v>
   <v type="int" >       12        3        6        6        7 </v>
   <v type="int" >       12       10       11       13       20 </v>
   <v type="int" >       12       11       13       20       21 </v>
   <v type="int" >       12       13       20       21       23 </v>
   <v type="int" >       12       11       12       14       21 </v>
   <v type="int" >       12       11       13       14       21 </v>
   <v type="int" >       12       13       14       21       23 </v>
   <v type="int" >       12       12       14       21       22 </v>
   <v type="int" >       12       14       21       22       24 </v>
   <v type="int" >       12       14       21       23       24 </v>
   <v type="int" >       12       12       12       14       22 </v>
   <v type="int" >       12       12       14       14       22 </v>
   <v type="int" >       12       14       14       22       24 </v>
   <v type="int" >       12       12       14       22       22 </v>
   <v type="int" >       12       14       22       22       24 </v>
   <v type="int" >       12       14       22       24       24 </v>
   <v type="int" >       12       11       12       13       22 </v>
   <v type="int" >       12       12       13       14       22 </v>
   <v type="int" >       12       13       14       22       24 </v>
   <v type="int" >       12       11       13       21       22 </v>
   <v type="int" >       12       13       21       22       23 </v>
   <v type="int" >       12       13       22       23       24 </v>
   <v type="int" >       12       10       11       11       21 </v>
   <v type="int" >       12       11       11       13       21 </v>
   <v type="int" >       12       11       13       21       23 </v>
   <v type="int" >       12       10       11       20       21 </v>
   <v type="int" >       12       11       20       21       21 </v>
   <v type="int" >       12       11       21       21       23 </v>
   <v type="int" >       12        7        8       10       20 </v>
   <v type="int" >       12        8       10       11       20 </v>
   <v type="int" >       12        8       11       20       21 </v>
   <v type="int" >       12        7        8       17       20 </v>
   <v type="int" >       12        8       17       18       20 </v>
   <v type="int" >       12        8       18       20       21 </v>
   <v type="int" >       12        3        4        7       17 </v>
   <v type="int" >       12        4        7        8       17 </v>
   <v type="int" >       12        4        8       17       18 </v>
   <v type="int" >       12        3        3        4        7 </v>
   <v type="int" >       12        3        4        4        7 </v>
   <v type="int" >       12        4        4        7        8 </v>
   <v type="int" >       12        3        4        7        7 </v>
   <v type="int" >       12        4        7        7        8 </v>
   <v type="int" >       12       13       14       15       23 </v>
   <v type="int" >       12       14       15       23       24 </v>
   <v type="int" >       12       15       23       24       25 </v>
   <v type="int" >       24       14       14       15       24 </v>
   <v type="int" >       12       14       15       15       24 </v>
   <v type="int" >       12       15       15       24       25 </v>
   <v type="int" >       12       14       15       24       24 </v>
   <v type="int" >       12       15       24       24       25 </v>
   <v type="int" >       12       15       24       25       25 </v>
   <v type="int" >       12       13       14       14       24 </v>
   <v type="int" >       12       14       15       24       25 </v>
   <v type="int" >       12       13       14       23       24 </v>
   <v type="int" >       12       14       23       24       24 </v>
   <v type="int" >       24       14       24       24       25 </v>
   <v type="int" >       12       11       12       13       23 </v>
   <v type="int" >       12       12       13       14       23 </v>
   <v type="int" >       12       12       14       23       24 </v>
   <v type="int" >       12       11       12       21       23 </v>
   <v type="int" >       12       12       21       22       23 </v>
   <v type="int" >       12       12       22       23       24 </v>
   <v type="int" >       12        8        9       11       21 </v>
   <v type="int" >       12        9       11       12       21 </v>
   <v type="int" >       12        9       12       21       22 </v>
   <v type="int" >       12        8        9       18       21 </v>
   <v type="int" >       12        9       18       19       21 </v>
   <v type="int" >       12        9       19       21       22 </v>
   <v type="int" >       12        4        5        8       18 </v>
   <v type="int" >       12        5        8        9       18 </v>
   <v type="int" >       12        5        9       18       19 </v>
   <v type="int" >       12        4        4        5        8 </v>
   <v type="int" >       12        4        5        5        8 </v>
   <v type="int" >       12        5        5        8        9 </v>
   <v type="int" >       12        4        5        8        8 </v>
   <v type="int" >       12        5        8        8        9 </v>
   <v type="int" >       12       15       15       15       25 </v>
   <v type="int" >       12       15       15       25       25 </v>
   <v type="int" >       12       15       25       25       25 </v>
   <v type="int" >       12       14       14       15       25 </v>
   <v type="int" >       12       14       15       15       25 </v>
   <v type="int" >       12       14       15       25       25 </v>
   <v type="int" >       12       14       14       24       25 </v>
   <v type="int" >       12       14       24       25       25 </v>
   <v type="int" >       12       12       12       14       24 </v>
   <v type="int" >       12       12       14       14       24 </v>
   <v type="int" >       12       12       14       24       24 </v>
   <v type="int" >       12       12       12       22       24 </v>
   <v type="int" >       12       12       22       22       24 </v>
   <v type="int" >       12       12       22       24       24 </v>
   <v type="int" >       12        9        9       12       22 </v>
   <v type="int" >       12        9       12       12       22 </v>
   <v type="int" >       12        9       12       22       22 </v>
   <v type="int" >       12        9        9       19       22 </v>
   <v type="int" >       12        9       19       19       22 </v>
   <v type="int" >       12        9       19       22       22 </v>
   <v type="int" >       12        5        5        9       19 </v>
   <v type="int" >       12        5        9        9       19 </v>
   <v type="int" >       12        5        9       19       19 </v>
   <v type="int" >       24        5        5        5        9 </v>
   <v type="int" >       12       13       14       15       25 </v>
   <v type="int" >       12       13       14       24       25 </v>
   <v type="int" >       12       13       23       24       25 </v>
   <v type="int" >       12       11       12       14       24 </v>
   <v type="int" >       12       11       13       14       24 </v>
   <v type="int" >       12       11       13       23       24 </v>
   <v type="int" >       12       11       12       22       24 </v>
   <v type="int" >       12       11       21       22       24 </v>
   <v type="int" >       12       11       21       23       24 </v>
   <v type="int" >       12        8        9       12       22 </v>
   <v type="int" >       12        8       11       12       22 </v>
   <v type="int" >       12        8       11       21       22 </v>
   <v type="int" >       12        8        9       19       22 </v>
   <v type="int" >       12        8       18       19       22 </v>
   <v type="int" >       12        8       18       21       22 </v>
   <v type="int" >       12        4        5        9       19 </v>
   <v type="int" >       12        4        8        9       19 </v>
   <v type="int" >       12        4        8       18       19 </v>
   <v type="int" >       12        4        5        5        9 </v>
   <v type="int" >       12        4        4        5        9 </v>
   <v type="int" >       12        4        4        8        9 </v>
   <v type="int" >       12        4        5        9        9 </v>
   <v type="int" >       12        4        8        9        9 </v>
   <v type="int" >       12       10       11       13       23 </v>
   <v type="int" >       12       10       11       21       23 </v>
   <v type="int" >       12       10       20       21       23 </v>
   <v type="int" >       12        7        8       11       21 </v>
   <v type="int" >       12        7       10       11       21 </v>
   <v type="int" >       12        7       10       20       21 </v>
   <v type="int" >       12        7        8       18       21 </v>
   <v type="int" >       12        7       17       18       21 </v>
   <v type="int" >       12        7       17       20       21 </v>
   <v type="int" >       12        3        4        8       18 </v>
   <v type="int" >       12        3        7        8       18 </v>
   <v type="int" >       12        3        7       17       18 </v>
   <v type="int" >       12        3        4        4        8 </v>
   <v type="int" >       12        3        3        4        8 </v>
   <v type="int" >       12        3        3        7        8 </v>
   <v type="int" >       12        3        4        8        8 </v>
   <v type="int" >       12        3        7        8        8 </v>
   <v type="int" >       12        6        7       10       20 </v>
   <v type="int" >       12        6        7       17       20 </v>
   <v type="int" >       12        6       16       17       20 </v>
   <v type="int" >       12        2        3        7       17 </v>
   <v type="int" >       12        2        6        7       17 </v>
   <v type="int" >       12        2        6       16       17 </v>
   <v type="int" >       12        2        3        3        7 </v>
   <v type="int" >       12        2        2        3        7 </v>
   <v type="int" >       12        2        2        6        7 </v>
   <v type="int" >       12        2        3        7        7 </v>
   <v type="int" >       12        2        6        7        7 </v>
   <v type="int" >       12        1        2        6       16 </v>
   <v type="int" >       12        1        1        2        6 </v>
   <v type="int" >       12        1        2        6        6 </v>
   <v type="int" >       12        1        1        1        2 </v>
   <v type="int" >       12       16       17       17       20 </v>
   <v type="int" >       12       17       17       20       20 </v>
   <v type="int" >       12       17       20       20       26 </v>
   <v type="int" >       12       17       18       20       21 </v>
   <v type="int" >       12       17       20       20       21 </v>
   <v type="int" >       12       20       20       21       26 </v>
   <v type="int" >       12       18       20       21       21 </v>
   <v type="int" >       24       20       21       21       27 </v>
   <v type="int" >       24       20       21       26       27 </v>
   <v type="int" >       12       18       19       21       22 </v>
   <v type="int" >       12       18       21       21       22 </v>
   <v type="int" >       12       21       21       22       27 </v>
   <v type="int" >       12       19       21       22       22 </v>
   <v type="int" >       12       21       22       22       28 </v>
   <v type="int" >       12       21       22       27       28 </v>
   <v type="int" >        6       19       19       22       22 </v>
   <v type="int" >       12       19       22       22       22 </v>
   <v type="int" >       12       22       22       22       28 </v>
   <v type="int" >        6       22       22       28       28 </v>
   <v type="int" >        6        6        6        7        7 </v>
   <v type="int" >       12        6        7        7        7 </v>
   <v type="int" >       12        7        7        7       10 </v>
   <v type="int" >        6        7        7       10       10 </v>
   <v type="int" >       12       20       21       23       26 </v>
   <v type="int" >       12       21       23       26       27 </v>
   <v type="int" >       12       23       26       27       29 </v>
   <v type="int" >       12       21       22       24       27 </v>
   <v type="int" >       12       21       23       24       27 </v>
   <v type="int" >       12       23       24       27       29 </v>
   <v type="int" >       12       22       24       27       28 </v>
   <v type="int" >       12       24       27       28       30 </v>
   <v type="int" >       12       24       27       29       30 </v>
   <v type="int" >       12       22       22       24       28 </v>
   <v type="int" >       12       22       24       24       28 </v>
   <v type="int" >       12       24       24       28       30 </v>
   <v type="int" >       12       22       24       28       28 </v>
   <v type="int" >       12       24       28       28       30 </v>
   <v type="int" >       12       24       28       30       30 </v>
   <v type="int" >       12       21       22       23       28 </v>
   <v type="int" >       12       22       23       24       28 </v>
   <v type="int" >       12       23       24       28       30 </v>
   <v type="int" >       12       21       23       27       28 </v>
   <v type="int" >       12       23       27       28       29 </v>
   <v type="int" >       12       23       28       29       30 </v>
   <v type="int" >       12       21       21       23       27 </v>
   <v type="int" >       12       21       23       27       29 </v>
   <v type="int" >       12       21       26       27       27 </v>
   <v type="int" >       12       21       27       27       29 </v>
   <v type="int" >       12       17       18       20       26 </v>
   <v type="int" >       12       18       20       21       26 </v>
   <v type="int" >       12       18       21       26       27 </v>
   <v type="int" >       12        7        7        8       10 </v>
   <v type="int" >       12        7        8        8       10 </v>
   <v type="int" >       12        8        8       10       11 </v>
   <v type="int" >       12        7        8       10       10 </v>
   <v type="int" >       12        8       10       10       11 </v>
   <v type="int" >       12        8       10       11       11 </v>
   <v type="int" >       12       23       24       25       29 </v>
   <v type="int" >       12       24       25       29       30 </v>
   <v type="int" >       12       25       29       30       31 </v>
   <v type="int" >       24       24       24       25       30 </v>
   <v type="int" >       12       24       25       25       30 </v>
   <v type="int" >       12       25       25       30       31 </v>
   <v type="int" >       12       24       25       30       30 </v>
   <v type="int" >       12       25       30       30       31 </v>
   <v type="int" >       12       25       30       31       31 </v>
   <v type="int" >       12       23       24       24       30 </v>
   <v type="int" >       12       24       25       30       31 </v>
   <v type="int" >       12       23       24       29       30 </v>
   <v type="int" >       12       24       29       30       30 </v>
   <v type="int" >       24       24       30       30       31 </v>
   <v type="int" >       12       21       22       23       29 </v>
   <v type="int" >       12       22       23       24       29 </v>
   <v type="int" >       12       22       24       29       30 </v>
   <v type="int" >       12       21       22       27       29 </v>
   <v type="int" >       12       22       27       28       29 </v>
   <v type="int" >       12       22       28       29       30 </v>
   <v type="int" >       12       18       19       21       27 </v>
   <v type="int" >       12       19       21       22       27 </v>
   <v type="int" >       12       19       22       27       28 </v>
   <v type="int" >       12        8        8        9       11 </v>
   <v type="int" >       12        8        9        9       11 </v>
   <v type="int" >       12        9        9       11       12 </v>
   <v type="int" >       12        8        9       11       11 </v>
   <v type="int" >       12        9       11       11       12 </v>
   <v type="int" >       12        9       11       12       12 </v>
   <v type="int" >       12       25       25       25       31 </v>
   <v type="int" >       12       25       25       31       31 </v>
   <v type="int" >       12       25       31       31       31 </v>
   <v type="int" >       12       24       24       25       31 </v>
   <v type="int" >       12       24       25       25       31 </v>
   <v type="int" >       12       24       25       31       31 </v>
   <v type="int" >       12       24       24       30       31 </v>
   <v type="int" >       12       24       30       31       31 </v>
   <v type="int" >       12       22       22       24       30 </v>
   <v type="int" >       12       22       24       24       30 </v>
   <v type="int" >       12       22       24       30       30 </v>
   <v type="int" >       12       22       22       28       30 </v>
   <v type="int" >       12       22       28       28       30 </v>
   <v type="int" >       12       22       28       30       30 </v>
   <v type="int" >       12       19       19       22       28 </v>
   <v type="int" >       12       19       22       22       28 </v>
   <v type="int" >       12       19       22       28       28 </v>
   <v type="int" >       24        9        9        9       12 </v>
   <v type="int" >       24        9        9       12       12 </v>
   <v type="int" >       24        9       12       12       12 </v>
   <v type="int" >       12       23       24       25       31 </v>
   <v type="int" >       12       23       24       30       31 </v>
   <v type="int" >       12       23       29       30       31 </v>
   <v type="int" >       12       21       22       24       30 </v>
   <v type="int" >       12       21       23       24       30 </v>
   <v type="int" >       12       21       23       29       30 </v>
   <v type="int" >       12       21       22       28       30 </v>
   <v type="int" >       12       21       27       28       30 </v>
   <v type="int" >       12       21       27       29       30 </v>
   <v type="int" >       12       18       19       22       28 </v>
   <v type="int" >       12       18       21       22       28 </v>
   <v type="int" >       12       18       21       27       28 </v>
   <v type="int" >       12        8        9        9       12 </v>
   <v type="int" >       12        8        8        9       12 </v>
   <v type="int" >       12        8        8       11       12 </v>
   <v type="int" >       12        8        9       12       12 </v>
   <v type="int" >       12        8       11       12       12 </v>
   <v type="int" >       12        8       11       11       12 </v>
   <v type="int" >       12       20       21       23       29 </v>
   <v type="int" >       12       20       21       27       29 </v>
   <v type="int" >       12       20       26       27       29 </v>
   <v type="int" >       12       17       18       21       27 </v>
   <v type="int" >       12       17       20       21       27 </v>
   <v type="int" >       12       17       20       26       27 </v>
   <v type="int" >       12        7        8        8       11 </v>
   <v type="int" >       12        7        7        8       11 </v>
   <v type="int" >       12        7        7       10       11 </v>
   <v type="int" >       12        7        8       11       11 </v>
   <v type="int" >       12        7       10       11       11 </v>
   <v type="int" >       12        7       10       10       11 </v>
   <v type="int" >       12       16       17       20       26 </v>
   <v type="int" >       12        6        7        7       10 </v>
   <v type="int" >       12        6        6        7       10 </v>
   <v type="int" >       12        6        7       10       10 </v>
   <v type="int" >       12        2        2        2        3 </v>
   <v type="int" >       12        2        2        3        3 </v>
   <v type="int" >       12        2        3        3        3 </v>
   <v type="int" >       12       26       27       27       29 </v>
   <v type="int" >       12       27       27       29       29 </v>
   <v type="int" >       12       27       29       29       32 </v>
   <v type="int" >       12       27       28       29       30 </v>
   <v type="int" >       12       27       29       29       30 </v>
   <v type="int" >       12       29       29       30       32 </v>
   <v type="int" >       12       28       29       30       30 </v>
   <v type="int" >       24       29       30       30       33 </v>
   <v type="int" >       24       29       30       32       33 </v>
   <v type="int" >        6       28       28       30       30 </v>
   <v type="int" >       12       28       30       30       30 </v>
   <v type="int" >       12       30       30       30       33 </v>
   <v type="int" >        6       30       30       33       33 </v>
   <v type="int" >        6       10       10       11       11 </v>
   <v type="int" >       12       10       11       11       11 </v>
   <v type="int" >       12       11       11       11       13 </v>
   <v type="int" >        6       11       11       13       13 </v>
   <v type="int" >       12       29       30       31       32 </v>
   <v type="int" >       12       30       31       32       33 </v>
   <v type="int" >       12       31       32       33       34 </v>
   <v type="int" >       24       30       30       31       33 </v>
   <v type="int" >       12       30       31       31       33 </v>
   <v type="int" >       12       31       31       33       34 </v>
   <v type="int" >       12       30       31       33       33 </v>
   <v type="int" >       12       31       33       33       34 </v>
   <v type="int" >       12       31       33       34       34 </v>
   <v type="int" >       12       30       31       33       34 </v>
   <v type="int" >       12       30       32       33       33 </v>
   <v type="int" >       24       30       33       33       34 </v>
   <v type="int" >       12       27       28       29       32 </v>
   <v type="int" >       12       28       29       30       32 </v>
   <v type="int" >       12       28       30       32       33 </v>
   <v type="int" >       12       11       11       12       13 </v>
   <v type="int" >       12       11       12       12       13 </v>
   <v type="int" >       12       12       12       13       14 </v>
   <v type="int" >       12       11       12       13       13 </v>
   <v type="int" >       12       12       13       13       14 </v>
   <v type="int" >       12       12       13       14       14 </v>
   <v type="int" >       12       31       31       31       34 </v>
   <v type="int" >       12       31       31       34       34 </v>
   <v type="int" >       12       31       34       34       34 </v>
   <v type="int" >       12       30       30       31       34 </v>
   <v type="int" >       12       30       31       31       34 </v>
   <v type="int" >       12       30       31       34       34 </v>
   <v type="int" >       12       30       30       33       34 </v>
   <v type="int" >       12       30       33       34       34 </v>
   <v type="int" >       12       28       28       30       33 </v>
   <v type="int" >       12       28       30       30       33 </v>
   <v type="int" >       12       28       30       33       33 </v>
   <v type="int" >       24       12       12       12       14 </v>
   <v type="int" >       24       12       12       14       14 </v>
   <v type="int" >       24       12       14       14       14 </v>
   <v type="int" >       12       29       30       31       34 </v>
   <v type="int" >       12       29       30       33       34 </v>
   <v type="int" >       12       29       32       33       34 </v>
   <v type="int" >       12       27       28       30       33 </v>
   <v type="int" >       12       27       29       30       33 </v>
   <v type="int" >       12       27       29       32       33 </v>
   <v type="int" >       12       11       12       12       14 </v>
   <v type="int" >       12       11       11       12       14 </v>
   <v type="int" >       12       11       11       13       14 </v>
   <v type="int" >       12       11       12       14       14 </v>
   <v type="int" >       12       11       13       14       14 </v>
   <v type="int" >       12       11       13       13       14 </v>
   <v type="int" >       12       26       27       29       32 </v>
   <v type="int" >       12       10       11       11       13 </v>
   <v type="int" >       12       10       10       11       13 </v>
   <v type="int" >       12       10       11       13       13 </v>
   <v type="int" >       12        3        3        3        4 </v>
   <v type="int" >       12        3        3        4        4 </v>
   <v type="int" >       12        3        4        4        4 </v>
   <v type="int" >       12       32       33       33       34 </v>
   <v type="int" >       18       33       33       34       34 </v>
   <v type="int" >       24       33       34       34       35 </v>
   <v type="int" >       12       33       34       34       34 </v>
   <v type="int" >       24       34       34       34       35 </v>
   <v type="int" >       18       34       34       35       35 </v>
   <v type="int" >        6       13       13       14       14 </v>
   <v type="int" >       12       13       14       14       14 </v>
   <v type="int" >       36       14       14       14       15 </v>
   <v type="int" >       30       14       14       15       15 </v>
   <v type="int" >       12       34       35       35       35 </v>
   <v type="int" >       12       33       33       34       35 </v>
   <v type="int" >       12       33       34       35       35 </v>
   <v type="int" >       24       14       15       15       15 </v>
   <v type="int" >       12       32       33       34       35 </v>
   <v type="int" >       12       13       14       14       15 </v>
   <v type="int" >       12       13       13       14       15 </v>
   <v type="int" >       12       13       14       15       15 </v>
   <v type="int" >       12        4        4        4        5 </v>
   <v type="int" >       12        4        4        5        5 </v>
   <v type="int" >       12        4        5        5        5 </v>
   <v type="int" >        6       35       35       35       35 </v>
   <v type="int" >       18       15       15       15       15 </v>
   <v type="int" >       18        5        5        5        5 </v>
   <v type="int" >        6        1        1        1        1 </v>
  </varray>
  <i name="volumeweight">      0.00016667 </i>
 </kpoints>
 <parameters>
  <separator name="general" >
   <i type="string" name="SYSTEM">unknown system</i>
   <i type="logical" name="LCOMPAT"> F  </i>
  </separator>
  <separator name="electronic" >
   <i type="string" name="PREC">accura</i>
   <i name="ENMAX">    780.00000000</i>
   <i name="ENAUG">    578.34200000</i>
   <i name="EDIFF">      0.00000010</i>
   <i type="int" name="IALGO">    38</i>
   <i type="int" name="IWAVPR">    10</i>
   <i type="int" name="NBANDS">    24</i>
   <i name="NELECT">     28.00000000</i>
   <i type="int" name="TURBO">     0</i>
   <i type="int" name="IRESTART">     0</i>
   <i type="int" name="NREBOOT">     0</i>
   <i type="int" name="NMIN">     0</i>
   <i name="EREF">      0.00000000</i>
   <separator name="electronic smearing" >
    <i type="int" name="ISMEAR">    -5</i>
    <i name="SIGMA">      0.05000000</i>
    <i name="KSPACING">      0.50000000</i>
    <i type="logical" name="KGAMMA"> T  </i>
   </separator>
   <separator name="electronic projectors" >
    <i type="logical" name="LREAL"> T  </i>
    <v name="ROPT">     -0.00025000</v>
    <i type="int" name="LMAXPAW">  -100</i>
    <i type="int" name="LMAXMIX">     2</i>
    <i type="logical" name="NLSPLINE"> F  </i>
   </separator>
   <separator name="electronic startup" >
    <i type="int" name="ISTART">     0</i>
    <i type="int" name="ICHARG">     2</i>
    <i type="int" name="INIWAV">     1</i>
   </separator>
   <separator name="electronic spin" >
    <i type="int" name="ISPIN">     2</i>
    <i type="logical" name="LNONCOLLINEAR"> F  </i>
    <v name="MAGMOM">      5.00000000      5.00000000</v>
    <i name="NUPDOWN">     -1.00000000</i>
    <i type="logical" name="LSORBIT"> F  </i>
    <v name="SAXIS">      0.00000000      0.00000000      1.00000000</v>
    <i type="logical" name="LSPIRAL"> F  </i>
    <v name="QSPIRAL">      0.00000000      0.00000000      0.00000000</v>
    <i type="logical" name="LZEROZ"> F  </i>
   </separator>
   <separator name="electronic exchange-correlation" >
    <i type="logical" name="LASPH"> F  </i>
    <i type="logical" name="LMETAGGA"> F  </i>
   </separator>
   <separator name="electronic convergence" >
    <i type="int" name="NELM">   100</i>
    <i type="int" name="NELMDL">    -5</i>
    <i type="int" name="NELMIN">     2</i>
    <i name="ENINI">    780.00000000</i>
    <separator name="electronic convergence detail" >
     <i type="logical" name="LDIAG"> T  </i>
     <i type="logical" name="LSUBROT"> F  </i>
     <i name="WEIMIN">      0.00000000</i>
     <i name="EBREAK">      0.00000000</i>
     <i name="DEPER">      0.30000000</i>
     <i type="int" name="NRMM">     4</i>
     <i name="TIME">      0.40000000</i>
    </separator>
   </separator>
   <separator name="electronic mixer" >
    <i name="AMIX">      0.40000000</i>
    <i name="BMIX">      1.00000000</i>
    <i name="AMIN">      0.10000000</i>
    <i name="AMIX_MAG">      1.60000000</i>
    <i name="BMIX_MAG">      1.00000000</i>
    <separator name="electronic mixer details" >
     <i type="int" name="IMIX">     4</i>
     <i type="logical" name="MIXFIRST"> F  </i>
     <i type="int" name="MAXMIX">   -45</i>
     <i name="WC">    100.00000000</i>
     <i type="int" name="INIMIX">     1</i>
     <i type="int" name="MIXPRE">     1</i>
     <i type="int" name="MREMOVE">     5</i>
    </separator>
   </separator>
   <separator name="electronic dipolcorrection" >
    <i type="logical" name="LDIPOL"> F  </i>
    <i type="logical" name="LMONO"> F  </i>
    <i type="int" name="IDIPOL">     0</i>
    <i name="EPSILON">      1.00000000</i>
    <v name="DIPOL">   -100.00000000   -100.00000000   -100.00000000</v>
    <i name="EFIELD">      0.00000000</i>
   </separator>
  </separator>
  <separator name="grids" >
   <i type="int" name="NGX">    28</i>
   <i type="int" name="NGY">    28</i>
   <i type="int" name="NGZ">    28</i>
   <i type="int" name="NGXF">    56</i>
   <i type="int" name="NGYF">    56</i>
   <i type="int" name="NGZF">    56</i>
   <i type="logical" name="ADDGRID"> F  </i>
  </separator>
  <separator name="ionic" >
   <i type="int" name="NSW">     0</i>
   <i type="int" name="IBRION">    -1</i>
   <i type="int" name="MDALGO">     0</i>
   <i type="int" name="ISIF">     3</i>
   <i name="PSTRESS">      0.00000000</i>
   <i name="EDIFFG">      0.00000100</i>
   <i type="int" name="NFREE">     0</i>
   <i name="POTIM">      0.50000000</i>
   <i name="SMASS">     -3.00000000</i>
   <i name="SCALEE">      1.00000000</i>
  </separator>
  <separator name="ionic md" >
   <i name="TEBEG">      0.00010000</i>
   <i name="TEEND">      0.00010000</i>
   <i type="int" name="NBLOCK">     1</i>
   <i type="int" name="KBLOCK">     1</i>
   <i type="int" name="NPACO">   256</i>
   <i name="APACO">     16.00000000</i>
  </separator>
  <separator name="symmetry" >
   <i type="int" name="ISYM">     2</i>
   <i name="SYMPREC">      0.00001000</i>
  </separator>
  <separator name="dos" >
   <i type="int" name="LORBIT">    11</i>
   <v name="RWIGS">     -1.00000000</v>
   <i type="int" name="NEDOS">   301</i>
   <i name="EMIN">     10.00000000</i>
   <i name="EMAX">    -10.00000000</i>
   <i name="EFERMI">      0.00000000</i>
  </separator>
  <separator name="writing" >
   <i type="int" name="NWRITE">     2</i>
   <i type="logical" name="LWAVE"> F  </i>
   <i type="logical" name="LDOWNSAMPLE"> F  </i>
   <i type="logical" name="LCHARG"> F  </i>
   <i type="logical" name="LPARD"> F  </i>
   <i type="logical" name="LVTOT"> F  </i>
   <i type="logical" name="LVHAR"> F  </i>
   <i type="logical" name="LELF"> F  </i>
   <i type="logical" name="LOPTICS"> F  </i>
   <v name="STM">      0.00000000      0.00000000      0.00000000      0.00000000      0.00000000      0.00000000      0.00000000</v>
  </separator>
  <separator name="performance" >
   <i type="int" name="NPAR">     6</i>
   <i type="int" name="NSIM">     4</i>
   <i type="int" name="NBLK">    -1</i>
   <i type="logical" name="LPLANE"> T  </i>
   <i type="logical" name="LSCALAPACK"> T  </i>
   <i type="logical" name="LSCAAWARE"> F  </i>
   <i type="logical" name="LSCALU"> F  </i>
   <i type="logical" name="LASYNC"> F  </i>
   <i type="logical" name="LORBITALREAL"> F  </i>
  </separator>
  <separator name="miscellaneous" >
   <i type="int" name="IDIOT">     3</i>
   <i type="int" name="ISPECIAL">     0</i>
   <i type="logical" name="LMUSIC"> F  </i>
   <v name="POMASS">     55.84700000</v>
   <v name="DARWINR">      0.00000000</v>
   <v name="DARWINV">      1.00000000</v>
   <i type="logical" name="LCORR"> T  </i>
  </separator>
  <i type="logical" name="GGA_COMPAT"> T  </i>
  <i type="logical" name="LBERRY"> F  </i>
  <i type="int" name="ICORELEVEL">     0</i>
  <i type="logical" name="LDAU"> F  </i>
  <i type="int" name="I_CONSTRAINED_M">     0</i>
  <separator name="electronic exchange-correlation" >
   <i type="string" name="GGA">--</i>
   <i type="int" name="VOSKOWN">     0</i>
   <i type="logical" name="LHFCALC"> F  </i>
   <i type="string" name="PRECFOCK"></i>
   <i type="logical" name="LSYMGRAD"> F  </i>
   <i type="logical" name="LHFONE"> F  </i>
   <i type="logical" name="LRHFCALC"> F  </i>
   <i type="logical" name="LTHOMAS"> F  </i>
   <i type="logical" name="LMODELHF"> F  </i>
   <i name="ENCUT4O">     -1.00000000</i>
   <i type="int" name="EXXOEP">     0</i>
   <i type="int" name="FOURORBIT">     0</i>
   <i name="AEXX">      0.00000000</i>
   <i name="HFALPHA">      0.00000000</i>
   <i name="MCALPHA">      0.00000000</i>
   <i name="ALDAX">      1.00000000</i>
   <i name="AGGAX">      1.00000000</i>
   <i name="ALDAC">      1.00000000</i>
   <i name="AGGAC">      1.00000000</i>
   <i type="int" name="NKREDX">     1</i>
   <i type="int" name="NKREDY">     1</i>
   <i type="int" name="NKREDZ">     1</i>
   <i type="logical" name="SHIFTRED"> F  </i>
   <i type="logical" name="ODDONLY"> F  </i>
   <i type="logical" name="EVENONLY"> F  </i>
   <i type="int" name="LMAXFOCK">     0</i>
   <i type="int" name="NMAXFOCKAE">     0</i>
   <i type="logical" name="LFOCKAEDFT"> F  </i>
   <i name="HFSCREEN">      0.00000000</i>
   <i name="HFSCREENC">      0.00000000</i>
   <i type="int" name="NBANDSGWLOW">     0</i>
  </separator>
  <separator name="vdW DFT" >
   <i type="logical" name="LUSE_VDW"> F  </i>
   <i name="Zab_VDW">     -0.84910000</i>
   <i name="PARAM1">      0.12340000</i>
   <i name="PARAM2">      1.00000000</i>
   <i name="PARAM3">      0.00000000</i>
  </separator>
  <separator name="model GW" >
   <i type="int" name="MODEL_GW">     0</i>
   <i name="MODEL_EPS0">      6.87226868</i>
   <i name="MODEL_ALPHA">      1.00000000</i>
  </separator>
  <separator name="linear response parameters" >
   <i type="logical" name="LEPSILON"> F  </i>
   <i type="logical" name="LRPA"> F  </i>
   <i type="logical" name="LNABLA"> F  </i>
   <i type="logical" name="LVEL"> F  </i>
   <i type="int" name="KINTER">     0</i>
   <i name="CSHIFT">      0.10000000</i>
   <i name="OMEGAMAX">     -1.00000000</i>
   <i name="DEG_THRESHOLD">      0.00200000</i>
   <i name="RTIME">     -0.10000000</i>
   <i name="WPLASMAI">      0.00000000</i>
   <v name="DFIELD">      0.00000000      0.00000000      0.00000000</v>
   <v name="WPLASMA">      0.00000000      0.00000000      0.00000000      0.00000000      0.00000000      0.00000000      0.00000000      0.00000000      0.00000000</v>
  </separator>
  <separator name="orbital magnetization" >
   <i type="logical" name="NUCIND"> F  </i>
   <v name="MAGPOS">      0.00000000      0.00000000      0.00000000</v>
   <i type="logical" name="LNICSALL"> T  </i>
   <i type="logical" name="ORBITALMAG"> F  </i>
   <i type="logical" name="LMAGBLOCH"> F  </i>
   <i type="logical" name="LCHIMAG"> F  </i>
   <i type="logical" name="LGAUGE"> T  </i>
   <i type="int" name="MAGATOM">     0</i>
   <v name="MAGDIPOL">      0.00000000      0.00000000      0.00000000</v>
   <v name="AVECCONST">      0.00000000      0.00000000      0.00000000</v>
  </separator>
  <separator name="response functions" >
   <i type="logical" name="LADDER"> F  </i>
   <i type="logical" name="LRPAFORCE"> F  </i>
   <i type="logical" name="LFXC"> F  </i>
   <i type="logical" name="LHARTREE"> T  </i>
   <i type="int" name="IBSE">     0</i>
   <v type="int" name="KPOINT">    -1     0     0     0</v>
   <i type="logical" name="LTCTE"> F  </i>
   <i type="logical" name="LTETE"> F  </i>
   <i type="logical" name="LTRIPLET"> F  </i>
   <i type="logical" name="LFXCEPS"> F  </i>
   <i type="logical" name="LFXHEG"> F  </i>
   <i type="int" name="NATURALO">     2</i>
   <i type="logical" name="L2ORDER"> F  </i>
   <i type="logical" name="LMP2LT"> F  </i>
   <i type="logical" name="LUSEW"> F  </i>
   <i name="ENCUTGW">     -2.00000000</i>
   <i name="ENCUTGWSOFT">     -2.00000000</i>
   <i name="ENCUTLF">     -1.00000000</i>
   <i type="int" name="LMAXMP2">    -1</i>
   <i name="SCISSOR">      0.00000000</i>
   <i type="int" name="NOMEGA">     0</i>
   <i type="int" name="NOMEGAR">     0</i>
   <i type="int" name="NBANDSGW">    -1</i>
   <i type="int" name="NBANDSO">    -1</i>
   <i type="int" name="NBANDSV">    -1</i>
   <i type="int" name="NELM">   100</i>
   <i type="int" name="NELMHF">     1</i>
   <i type="int" name="DIM">     3</i>
   <i type="int" name="ANTIRES">     0</i>
   <i name="OMEGAMAX">    -30.00000000</i>
   <i name="OMEGAMIN">    -30.00000000</i>
   <i name="OMEGATL">   -200.00000000</i>
   <i type="int" name="OMEGAGRID">   140</i>
   <i name="CSHIFT">     -0.10000000</i>
   <i type="logical" name="SELFENERGY"> F  </i>
   <i type="logical" name="LSPECTRAL"> F  </i>
   <i type="logical" name="LSPECTRALGW"> F  </i>
   <i type="logical" name="LSINGLES"> F  </i>
   <i type="logical" name="LFERMIGW"> F  </i>
   <i type="logical" name="ODDONLYGW"> F  </i>
   <i type="logical" name="EVENONLYGW"> F  </i>
   <i type="int" name="NKREDLFX">     1</i>
   <i type="int" name="NKREDLFY">     1</i>
   <i type="int" name="NKREDLFZ">     1</i>
   <i type="int" name="MAXMEM">  2800</i>
   <i type="int" name="TELESCOPE">     0</i>
   <i type="int" name="TAUPAR">     1</i>
   <i type="int" name="OMEGAPAR">    -1</i>
   <i name="LAMBDA">      1.00000000</i>
  </separator>
  <separator name="External order field" >
   <i name="OFIELD_KAPPA">      0.00000000</i>
   <v name="OFIELD_K">      0.00000000      0.00000000      0.00000000</v>
   <i name="OFIELD_Q6_NEAR">      0.00000000</i>
   <i name="OFIELD_Q6_FAR">      0.00000000</i>
   <i name="OFIELD_A">      0.00000000</i>
  </separator>
 </parameters>
 <atominfo>
  <atoms>       2 </atoms>
  <types>       1 </types>
  <array name="atoms" >
   <dimension dim="1">ion</dimension>
   <field type="string">element</field>
   <field type="int">atomtype</field>
   <set>
    <rc><c>Fe</c><c>   1</c></rc>
    <rc><c>Fe</c><c>   1</c></rc>
   </set>
  </array>
  <array name="atomtypes" >
   <dimension dim="1">type</dimension>
   <field type="int">atomspertype</field>
   <field type="string">element</field>
   <field>mass</field>
   <field>valence</field>
   <field type="string">pseudopotential</field>
   <set>
    <rc><c>   2</c><c>Fe</c><c>     55.84700000</c><c>     14.00000000</c><c>  PAW_PBE Fe_pv 02Aug2007               </c></rc>
   </set>
  </array>
 </atominfo>
 <structure name="initialpos" >
  <crystal>
   <varray name="basis" >
    <v>       2.84005200       0.00000000       0.00000000 </v>
    <v>       0.00000000       2.84005200       0.00000000 </v>
    <v>       0.00000000       0.00000000       2.84005200 </v>
   </varray>
   <i name="volume">     22.90756226 </i>
   <varray name="rec_basis" >
    <v>       0.35210623       0.00000000       0.00000000 </v>
    <v>       0.00000000       0.35210623       0.00000000 </v>
    <v>       0.00000000       0.00000000       0.35210623 </v>
   </varray>
  </crystal>
  <varray name="positions" >
   <v>       0.00000000       0.00000000       0.00000000 </v>
   <v>       0.50000000       0.50000000       0.50000000 </v>
  </varray>
 </structure>
 <calculation>
  <scstep>
   <time name="dav">    0.51    0.51</time>
   <time name="total">    0.56    0.57</time>
   <energy>
    <i name="alphaZ">    218.87048721 </i>
    <i name="ewald">  -3616.56080017 </i>
    <i name="hartreedc">  -1162.86386254 </i>
    <i name="XCdc">    147.54621443 </i>
    <i name="pawpsdc">   3997.93860218 </i>
    <i name="pawaedc">  -4177.34792201 </i>
    <i name="eentropy">      0.00000000 </i>
    <i name="bandstr">    -71.02651340 </i>
    <i name="atom">   4914.84533492 </i>
    <i name="e_fr_energy">    251.40154062 </i>
    <i name="e_wo_entrp">    251.40154062 </i>
    <i name="e_0_energy">    251.40154062 </i>
   </energy>
  </scstep>
  <scstep>
   <time name="dav">    0.51    0.52</time>
   <time name="total">    0.55    0.55</time>
   <energy>
    <i name="e_fr_energy">     -8.77486157 </i>
    <i name="e_wo_entrp">     -8.77486157 </i>
    <i name="e_0_energy">     -8.77486157 </i>
   </energy>
  </scstep>
  <scstep>
   <time name="dav">    0.52    0.52</time>
   <time name="total">    0.55    0.55</time>
   <energy>
    <i name="e_fr_energy">    -16.20897652 </i>
    <i name="e_wo_entrp">    -16.20897652 </i>
    <i name="e_0_energy">    -16.20897652 </i>
   </energy>
  </scstep>
  <scstep>
   <time name="dav">    0.58    0.59</time>
   <time name="total">    0.62    0.62</time>
   <energy>
    <i name="e_fr_energy">    -16.27321353 </i>
    <i name="e_wo_entrp">    -16.27321353 </i>
    <i name="e_0_energy">    -16.27321353 </i>
   </energy>
  </scstep>
  <scstep>
   <time name="dav">    0.52    0.52</time>
   <time name="total">    0.58    0.58</time>
   <energy>
    <i name="e_fr_energy">    -16.27439661 </i>
    <i name="e_wo_entrp">    -16.27439661 </i>
    <i name="e_0_energy">    -16.27439661 </i>
   </energy>
  </scstep>
  <scstep>
   <time name="dav">    0.49    0.49</time>
   <time name="total">    0.57    0.57</time>
   <energy>
    <i name="e_fr_energy">    -16.45880858 </i>
    <i name="e_wo_entrp">    -16.45880858 </i>
    <i name="e_0_energy">    -16.45880858 </i>
   </energy>
  </scstep>
  <scstep>
   <time name="dav">    0.49    0.49</time>
   <time name="total">    0.57    0.57</time>
   <energy>
    <i name="e_fr_energy">    -16.51335312 </i>
    <i name="e_wo_entrp">    -16.51335312 </i>
    <i name="e_0_energy">    -16.51335312 </i>
   </energy>
  </scstep>
  <scstep>
   <time name="dav">    0.54    0.54</time>
   <time name="total">    0.61    0.61</time>
   <energy>
    <i name="e_fr_energy">    -16.52306836 </i>
    <i name="e_wo_entrp">    -16.52306836 </i>
    <i name="e_0_energy">    -16.52306836 </i>
   </energy>
  </scstep>
  <scstep>
   <time name="dav">    0.52    0.52</time>
   <time name="total">    0.59    0.59</time>
   <energy>
    <i name="e_fr_energy">    -16.51478653 </i>
    <i name="e_wo_entrp">    -16.51478653 </i>
    <i name="e_0_energy">    -16.51478653 </i>
   </energy>
  </scstep>
  <scstep>
   <time name="dav">    0.50    0.50</time>
   <time name="total">    0.57    0.57</time>
   <energy>
    <i name="e_fr_energy">    -16.51458767 </i>
    <i name="e_wo_entrp">    -16.51458767 </i>
    <i name="e_0_energy">    -16.51458767 </i>
   </energy>
  </scstep>
  <scstep>
   <time name="dav">    0.53    0.53</time>
   <time name="total">    0.60    0.60</time>
   <energy>
    <i name="e_fr_energy">    -16.51464769 </i>
    <i name="e_wo_entrp">    -16.51464769 </i>
    <i name="e_0_energy">    -16.51464769 </i>
   </energy>
  </scstep>
  <scstep>
   <time name="dav">    0.56    0.56</time>
   <time name="total">    0.63    0.63</time>
   <energy>
    <i name="e_fr_energy">    -16.51465585 </i>
    <i name="e_wo_entrp">    -16.51465585 </i>
    <i name="e_0_energy">    -16.51465585 </i>
   </energy>
  </scstep>
  <scstep>
   <time name="dav">    0.50    0.50</time>
   <time name="total">    0.58    0.58</time>
   <energy>
    <i name="e_fr_energy">    -16.51464911 </i>
    <i name="e_wo_entrp">    -16.51464911 </i>
    <i name="e_0_energy">    -16.51464911 </i>
   </energy>
  </scstep>
  <scstep>
   <time name="dav">    0.43    0.43</time>
   <time name="total">    0.50    0.50</time>
   <energy>
    <i name="e_fr_energy">    -16.51464755 </i>
    <i name="e_wo_entrp">    -16.51464755 </i>
    <i name="e_0_energy">    -16.51464755 </i>
   </energy>
  </scstep>
  <scstep>
   <time name="dav">    0.32    0.32</time>
   <time name="total">    0.37    0.37</time>
   <energy>
    <i name="alphaZ">    218.87048721 </i>
    <i name="ewald">  -3616.56080017 </i>
    <i name="hartreedc">  -1089.92550224 </i>
    <i name="XCdc">    140.87572187 </i>
    <i name="pawpsdc">   4375.61534308 </i>
    <i name="pawaedc">  -4560.96684389 </i>
    <i name="eentropy">      0.00000000 </i>
    <i name="bandstr">   -399.26838834 </i>
    <i name="atom">   4914.84533492 </i>
    <i name="e_fr_energy">    -16.51464756 </i>
    <i name="e_wo_entrp">    -16.51464756 </i>
    <i name="e_0_energy">    -16.51464756 </i>
   </energy>
  </scstep>
  <structure>
   <crystal>
    <varray name="basis" >
     <v>       2.84005200       0.00000000       0.00000000 </v>
     <v>       0.00000000       2.84005200       0.00000000 </v>
     <v>       0.00000000       0.00000000       2.84005200 </v>
    </varray>
    <i name="volume">     22.90756226 </i>
    <varray name="rec_basis" >
     <v>       0.35210623       0.00000000       0.00000000 </v>
     <v>       0.00000000       0.35210623       0.00000000 </v>
     <v>       0.00000000       0.00000000       0.35210623 </v>
    </varray>
   </crystal>
   <varray name="positions" >
    <v>       0.00000000       0.00000000       0.00000000 </v>
    <v>       0.50000000       0.50000000       0.50000000 </v>
   </varray>
  </structure>
  <varray name="forces" >
   <v>      -0.00000000       0.00000000      -0.00000000 </v>
   <v>       0.00000000      -0.00000000       0.00000000 </v>
  </varray>
  <varray name="stress" >
   <v>     -16.30753900      -0.00000000       0.00000000 </v>
   <v>       0.00000000     -16.30753900      -0.00000000 </v>
   <v>       0.00000000       0.00000000     -16.30753900 </v>
  </varray>
  <energy>
   <i name="e_fr_energy">    -16.51464756 </i>
   <i name="e_wo_entrp">    -16.51464756 </i>
   <i name="e_0_energy">      0.00000000 </i>
  </energy>
  <time name="totalsc">    8.94    8.97</time>
  <eigenvalues>
   <array>
    <dimension dim="1">band</dimension>
    <dimension dim="2">kpoint</dimension>
    <dimension dim="3">spin</dimension>
    <field>eigene</field>
    <field>occ</field>
    <set>
     <set comment="spin 1">
      <set comment="kpoint 1">
       <r>  -44.5603    1.0000 </r>
       <r>  -44.5603    1.0000 </r>
       <r>  -44.5460    1.0000 </r>
       <r>  -44.2893    1.0000 </r>
       <r>  -44.2745    1.0000 </r>
       <r>  -44.2745    1.0000 </r>
       <r>    1.3982    1.0000 </r>
       <r>    4.9383    1.0000 </r>
       <r>    4.9383    1.0000 </r>
       <r>    7.3048    1.0000 </r>
       <r>    7.3048    1.0000 </r>
       <r>    7.4309    1.0000 </r>
       <r>    8.5804    1.0000 </r>
       <r>    8.5804    1.0000 </r>
       <r>    9.4948    1.0000 </r>
       <r>    9.6872    0.6008 </r>
       <r>    9.6872    0.0098 </r>
       <r>   19.1998    0.0000 </r>
       <r>   19.1998    0.0000 </r>
       <r>   19.4418    0.0000 </r>
       <r>   25.8103    0.0000 </r>
       <r>   25.8103    0.0000 </r>
       <r>   30.6974    0.0000 </r>
       <r>   33.3488    0.0000 </r>
      </set>
      <set comment="kpoint 2">
       <r>  -44.5663    1.0000 </r>
       <r>  -44.5455    1.0000 </r>
       <r>  -44.5239    1.0000 </r>
       <r>  -44.3210    1.0000 </r>
       <r>  -44.2878    1.0000 </r>
       <r>  -44.2801    1.0000 </r>
       <r>    1.8019    1.0000 </r>
       <r>    5.1062    1.0000 </r>
       <r>    5.1084    1.0000 </r>
       <r>    7.2463    1.0000 </r>
       <r>    7.2946    1.0000 </r>
       <r>    7.5991    1.0000 </r>
       <r>    8.4143    1.0000 </r>
       <r>    8.6554    1.0000 </r>
       <r>    9.1041    1.0000 </r>
       <r>    9.3726    1.0210 </r>
       <r>    9.6658    0.1361 </r>
       <r>   17.0990    0.0000 </r>
       <r>   19.9187    0.0000 </r>
       <r>   20.0958    0.0000 </r>
       <r>   25.9619    0.0000 </r>
       <r>   27.1440    0.0000 </r>
       <r>   31.5526    0.0000 </r>
       <r>   32.1500    0.0000 </r>
      </set>
      <set comment="kpoint 3">
       <r>  -44.5635    1.0000 </r>
       <r>  -44.5177    1.0000 </r>
       <r>  -44.4932    1.0000 </r>
       <r>  -44.3688    1.0000 </r>
       <r>  -44.3131    1.0000 </r>
       <r>  -44.3001    1.0000 </r>
       <r>    2.5674    1.0000 </r>
       <r>    5.3676    1.0000 </r>
       <r>    5.4274    1.0000 </r>
       <r>    7.2424    1.0000 </r>
       <r>    7.2874    1.0000 </r>
       <r>    7.8416    1.0000 </r>
       <r>    8.1079    1.0000 </r>
       <r>    8.6067    1.0000 </r>
       <r>    8.7947    1.0000 </r>
       <r>    8.8890    1.0000 </r>
       <r>    9.4859    1.0392 </r>
       <r>   14.5757    0.0000 </r>
       <r>   21.1879    0.0000 </r>
       <r>   21.3586    0.0000 </r>
       <r>   26.2946    0.0000 </r>
       <r>   27.9719    0.0000 </r>
       <r>   29.6289    0.0000 </r>
       <r>   31.2961    0.0000 </r>
      </set>
      <set comment="kpoint 4">
       <r>  -44.5490    1.0000 </r>
       <r>  -44.4799    1.0000 </r>
       <r>  -44.4552    1.0000 </r>
       <r>  -44.4241    1.0000 </r>
       <r>  -44.3485    1.0000 </r>
       <r>  -44.3314    1.0000 </r>
       <r>    3.5895    1.0000 </r>
       <r>    5.5403    1.0000 </r>
       <r>    5.8725    1.0000 </r>
       <r>    7.2458    1.0000 </r>
       <r>    7.3213    1.0000 </r>
       <r>    7.7680    1.0000 </r>
       <r>    8.1304    1.0000 </r>
       <r>    8.1503    1.0000 </r>
       <r>    8.3930    1.0000 </r>
       <r>    9.0193    1.0000 </r>
       <r>    9.2004    1.0387 </r>
       <r>   12.2834    0.0000 </r>
       <r>   22.7946    0.0000 </r>
       <r>   23.0074    0.0000 </r>
       <r>   26.8755    0.0000 </r>
       <r>   27.8749    0.0000 </r>
       <r>   28.6105    0.0000 </r>
       <r>   29.1475    0.0000 </r>
      </set>
      <set comment="kpoint 5">
       <r>  -44.5203    1.0000 </r>
       <r>  -44.4772    1.0000 </r>
       <r>  -44.4361    1.0000 </r>
       <r>  -44.4130    1.0000 </r>
       <r>  -44.3908    1.0000 </r>
       <r>  -44.3704    1.0000 </r>
       <r>    4.6412    1.0000 </r>
       <r>    5.3583    1.0000 </r>
       <r>    6.3947    1.0000 </r>
       <r>    6.9174    1.0000 </r>
       <r>    7.4991    1.0000 </r>
       <r>    7.7311    1.0000 </r>
       <r>    7.7625    1.0000 </r>
       <r>    7.9855    1.0000 </r>
       <r>    8.4991    1.0000 </r>
       <r>    8.8574    1.0000 </r>
       <r>    9.4833    0.9855 </r>
       <r>   10.5198    0.0000 </r>
       <r>   24.5325    0.0000 </r>
       <r>   24.9047    0.0000 </r>
       <r>   26.2268    0.0000 </r>
       <r>   26.9673    0.0000 </r>
       <r>   27.8213    0.0000 </r>
       <r>   29.2509    0.0000 </r>
      </set>
      <set comment="kpoint 6">
       <r>  -44.5804    1.0000 </r>
       <r>  -44.5368    1.0000 </r>
       <r>  -44.4916    1.0000 </r>
       <r>  -44.3625    1.0000 </r>
       <r>  -44.2980    1.0000 </r>
       <r>  -44.2746    1.0000 </r>
       <r>    2.1897    1.0000 </r>
       <r>    5.2391    1.0000 </r>
       <r>    5.2979    1.0000 </r>
       <r>    7.0937    1.0000 </r>
       <r>    7.2374    1.0000 </r>
       <r>    7.8700    1.0000 </r>
       <r>    8.4386    1.0000 </r>
       <r>    8.6106    1.0000 </r>
       <r>    8.6247    1.0000 </r>
       <r>    9.1497    1.0069 </r>
       <r>    9.7348    0.0314 </r>
       <r>   17.1961    0.0000 </r>
       <r>   18.2811    0.0000 </r>
       <r>   20.6510    0.0000 </r>
       <r>   26.6284    0.0000 </r>
       <r>   28.5394    0.0000 </r>
       <r>   29.9221    0.0000 </r>
       <r>   31.9696    0.0000 </r>
      </set>
      <set comment="kpoint 7">
       <r>  -44.5896    1.0000 </r>
       <r>  -44.5112    1.0000 </r>
       <r>  -44.4538    1.0000 </r>
       <r>  -44.4172    1.0000 </r>
       <r>  -44.3210    1.0000 </r>
       <r>  -44.2820    1.0000 </r>
       <r>    2.9161    1.0000 </r>
       <r>    5.4554    1.0000 </r>
       <r>    5.6207    1.0000 </r>
       <r>    6.9882    1.0000 </r>
       <r>    7.1824    1.0000 </r>
       <r>    8.1058    1.0000 </r>
       <r>    8.2002    1.0000 </r>
       <r>    8.2825    1.0000 </r>
       <r>    8.7217    1.0000 </r>
       <r>    8.7244    1.0000 </r>
       <r>    9.6886    0.2892 </r>
       <r>   14.9840    0.0000 </r>
       <r>   19.0122    0.0000 </r>
       <r>   21.7958    0.0000 </r>
       <r>   27.0200    0.0000 </r>
       <r>   27.7479    0.0000 </r>
       <r>   29.9240    0.0000 </r>
       <r>   30.6413    0.0000 </r>
      </set>
      <set comment="kpoint 8">
       <r>  -44.5855    1.0000 </r>
       <r>  -44.4757    1.0000 </r>
       <r>  -44.4750    1.0000 </r>
       <r>  -44.4131    1.0000 </r>
       <r>  -44.3534    1.0000 </r>
       <r>  -44.3030    1.0000 </r>
       <r>    3.8582    1.0000 </r>
       <r>    5.5955    1.0000 </r>
       <r>    6.0117    1.0000 </r>
       <r>    6.9645    1.0000 </r>
       <r>    7.1189    1.0000 </r>
       <r>    7.6671    1.0000 </r>
       <r>    8.0932    1.0000 </r>
       <r>    8.3377    1.0000 </r>
       <r>    8.5643    1.0000 </r>
       <r>    8.9633    1.0000 </r>
       <r>    9.4969    0.9239 </r>
       <r>   12.6534    0.0000 </r>
       <r>   20.3763    0.0000 </r>
       <r>   23.3122    0.0000 </r>
       <r>   25.6605    0.0000 </r>
       <r>   27.5891    0.0000 </r>
       <r>   28.7792    0.0000 </r>
       <r>   30.9265    0.0000 </r>
      </set>
      <set comment="kpoint 9">
       <r>  -44.5646    1.0000 </r>
       <r>  -44.5265    1.0000 </r>
       <r>  -44.4347    1.0000 </r>
       <r>  -44.3925    1.0000 </r>
       <r>  -44.3722    1.0000 </r>
       <r>  -44.3343    1.0000 </r>
       <r>    4.7819    1.0000 </r>
       <r>    5.4046    1.0000 </r>
       <r>    6.4367    1.0000 </r>
       <r>    6.8150    1.0000 </r>
       <r>    7.1498    1.0000 </r>
       <r>    7.3557    1.0000 </r>
       <r>    8.0550    1.0000 </r>
       <r>    8.1286    1.0000 </r>
       <r>    8.8894    1.0000 </r>
       <r>    9.2082    1.0000 </r>
       <r>    9.5413    0.7785 </r>
       <r>   10.7645    0.0000 </r>
       <r>   21.9650    0.0000 </r>
       <r>   23.7294    0.0000 </r>
       <r>   25.0474    0.0000 </r>
       <r>   26.8832    0.0000 </r>
       <r>   28.4947    0.0000 </r>
       <r>   29.8474    0.0000 </r>
      </set>
      <set comment="kpoint 10">
       <r>  -44.6128    1.0000 </r>
       <r>  -44.4905    1.0000 </r>
       <r>  -44.4769    1.0000 </r>
       <r>  -44.4109    1.0000 </r>
       <r>  -44.3387    1.0000 </r>
       <r>  -44.2747    1.0000 </r>
       <r>    3.5390    1.0000 </r>
       <r>    5.5105    1.0000 </r>
       <r>    6.0142    1.0000 </r>
       <r>    6.7714    1.0000 </r>
       <r>    7.1537    1.0000 </r>
       <r>    7.5987    1.0000 </r>
       <r>    8.4263    1.0000 </r>
       <r>    8.4288    1.0000 </r>
       <r>    8.6230    1.0000 </r>
       <r>    8.6649    1.0000 </r>
       <r>    9.8080   -0.0339 </r>
       <r>   14.8632    0.0000 </r>
       <r>   17.4659    0.0000 </r>
       <r>   22.7549    0.0000 </r>
       <r>   25.3835    0.0000 </r>
       <r>   27.3663    0.0000 </r>
       <r>   30.0596    0.0000 </r>
       <r>   32.3852    0.0000 </r>
      </set>
      <set comment="kpoint 11">
       <r>  -44.6220    1.0000 </r>
       <r>  -44.5351    1.0000 </r>
       <r>  -44.4617    1.0000 </r>
       <r>  -44.3694    1.0000 </r>
       <r>  -44.3641    1.0000 </r>
       <r>  -44.2819    1.0000 </r>
       <r>    4.2637    1.0000 </r>
       <r>    5.4678    1.0000 </r>
       <r>    6.4673    1.0000 </r>
       <r>    6.6639    1.0000 </r>
       <r>    7.1893    1.0000 </r>
       <r>    7.2436    1.0000 </r>
       <r>    8.2728    1.0000 </r>
       <r>    8.4046    1.0000 </r>
       <r>    8.8097    1.0000 </r>
       <r>    9.0699    1.0219 </r>
       <r>    9.7581    0.0040 </r>
       <r>   13.0484    0.0000 </r>
       <r>   18.1036    0.0000 </r>
       <r>   23.1680    0.0000 </r>
       <r>   24.0663    0.0000 </r>
       <r>   27.8481    0.0000 </r>
       <r>   28.7852    0.0000 </r>
       <r>   31.4421    0.0000 </r>
      </set>
      <set comment="kpoint 12">
       <r>  -44.6123    1.0000 </r>
       <r>  -44.5824    1.0000 </r>
       <r>  -44.4286    1.0000 </r>
       <r>  -44.3950    1.0000 </r>
       <r>  -44.3321    1.0000 </r>
       <r>  -44.3020    1.0000 </r>
       <r>    4.8667    1.0000 </r>
       <r>    5.2597    1.0000 </r>
       <r>    6.6822    1.0000 </r>
       <r>    6.7709    1.0000 </r>
       <r>    7.0122    1.0000 </r>
       <r>    7.2243    1.0000 </r>
       <r>    8.3125    1.0000 </r>
       <r>    8.3954    1.0000 </r>
       <r>    9.1812    1.0000 </r>
       <r>    9.5469    0.9517 </r>
       <r>    9.7288    0.0298 </r>
       <r>   11.1095    0.0000 </r>
       <r>   19.4889    0.0000 </r>
       <r>   21.1932    0.0000 </r>
       <r>   25.5959    0.0000 </r>
       <r>   27.2069    0.0000 </r>
       <r>   28.6471    0.0000 </r>
       <r>   29.8693    0.0000 </r>
      </set>
      <set comment="kpoint 13">
       <r>  -44.6451    1.0000 </r>
       <r>  -44.5896    1.0000 </r>
       <r>  -44.4424    1.0000 </r>
       <r>  -44.3796    1.0000 </r>
       <r>  -44.3310    1.0000 </r>
       <r>  -44.2748    1.0000 </r>
       <r>    4.6033    1.0000 </r>
       <r>    5.2501    1.0000 </r>
       <r>    6.4672    1.0000 </r>
       <r>    6.7900    1.0000 </r>
       <r>    7.0689    1.0000 </r>
       <r>    7.8006    1.0000 </r>
       <r>    8.3289    1.0000 </r>
       <r>    8.5819    1.0000 </r>
       <r>    8.7314    1.0000 </r>
       <r>    9.5046    0.9629 </r>
       <r>    9.8585   -0.0050 </r>
       <r>   12.6727    0.0000 </r>
       <r>   17.0755    0.0000 </r>
       <r>   20.9327    0.0000 </r>
       <r>   25.1103    0.0000 </r>
       <r>   28.2080    0.0000 </r>
       <r>   28.4081    0.0000 </r>
       <r>   30.7492    0.0000 </r>
      </set>
      <set comment="kpoint 14">
       <r>  -44.6484    1.0000 </r>
       <r>  -44.6293    1.0000 </r>
       <r>  -44.4206    1.0000 </r>
       <r>  -44.3989    1.0000 </r>
       <r>  -44.3011    1.0000 </r>
       <r>  -44.2817    1.0000 </r>
       <r>    4.8277    1.0000 </r>
       <r>    5.0274    1.0000 </r>
       <r>    6.4159    1.0000 </r>
       <r>    6.5253    1.0000 </r>
       <r>    7.6336    1.0000 </r>
       <r>    8.0157    1.0000 </r>
       <r>    8.4771    1.0000 </r>
       <r>    8.6083    1.0000 </r>
       <r>    9.2345    1.0000 </r>
       <r>    9.7476    0.3170 </r>
       <r>   10.0491    0.0000 </r>
       <r>   11.2876    0.0000 </r>
       <r>   17.6524    0.0000 </r>
       <r>   19.0566    0.0000 </r>
       <r>   26.3162    0.0000 </r>
       <r>   27.4992    0.0000 </r>
       <r>   28.8185    0.0000 </r>
       <r>   29.7274    0.0000 </r>
      </set>
      <set comment="kpoint 15">
       <r>  -44.6650    1.0000 </r>
       <r>  -44.6585    1.0000 </r>
       <r>  -44.4122    1.0000 </r>
       <r>  -44.4048    1.0000 </r>
       <r>  -44.2816    1.0000 </r>
       <r>  -44.2749    1.0000 </r>
       <r>    4.7955    1.0000 </r>
       <r>    4.8569    1.0000 </r>
       <r>    6.2866    1.0000 </r>
       <r>    6.3241    1.0000 </r>
       <r>    8.3606    1.0000 </r>
       <r>    8.5983    1.0000 </r>
       <r>    8.6194    1.0000 </r>
       <r>    8.7803    1.0000 </r>
       <r>    9.2765    1.0000 </r>
       <r>    9.7026    0.2833 </r>
       <r>   10.4353    0.0000 </r>
       <r>   10.9859    0.0000 </r>
       <r>   16.9431    0.0000 </r>
       <r>   17.5292    0.0000 </r>
       <r>   27.0345    0.0000 </r>
       <r>   27.4880    0.0000 </r>
       <r>   29.0850    0.0000 </r>
       <r>   29.4301    0.0000 </r>
      </set>
      <set comment="kpoint 16">
       <r>  -44.5646    1.0000 </r>
       <r>  -44.5646    1.0000 </r>
       <r>  -44.4558    1.0000 </r>
       <r>  -44.4000    1.0000 </r>
       <r>  -44.2888    1.0000 </r>
       <r>  -44.2888    1.0000 </r>
       <r>    2.5670    1.0000 </r>
       <r>    5.4264    1.0000 </r>
       <r>    5.4264    1.0000 </r>
       <r>    7.0362    1.0000 </r>
       <r>    7.0362    1.0000 </r>
       <r>    8.0861    1.0000 </r>
       <r>    8.1861    1.0000 </r>
       <r>    8.5282    1.0000 </r>
       <r>    8.5282    1.0000 </r>
       <r>    9.4250    0.9998 </r>
       <r>    9.4250    1.1123 </r>
       <r>   17.8414    0.0000 </r>
       <r>   17.8414    0.0000 </r>
       <r>   19.2371    0.0000 </r>
       <r>   28.7875    0.0000 </r>
       <r>   28.7875    0.0000 </r>
       <r>   29.7386    0.0000 </r>
       <r>   29.7386    0.0000 </r>
      </set>
      <set comment="kpoint 17">
       <r>  -44.5849    1.0000 </r>
       <r>  -44.5349    1.0000 </r>
       <r>  -44.4514    1.0000 </r>
       <r>  -44.4177    1.0000 </r>
       <r>  -44.3160    1.0000 </r>
       <r>  -44.2882    1.0000 </r>
       <r>    3.2657    1.0000 </r>
       <r>    5.6656    1.0000 </r>
       <r>    5.6998    1.0000 </r>
       <r>    6.9036    1.0000 </r>
       <r>    6.9350    1.0000 </r>
       <r>    7.5733    1.0000 </r>
       <r>    8.3824    1.0000 </r>
       <r>    8.5851    1.0000 </r>
       <r>    8.6827    1.0000 </r>
       <r>    8.9720    1.0000 </r>
       <r>    9.5064    0.9527 </r>
       <r>   15.4703    0.0000 </r>
       <r>   18.9553    0.0000 </r>
       <r>   19.8769    0.0000 </r>
       <r>   27.5257    0.0000 </r>
       <r>   28.5416    0.0000 </r>
       <r>   29.3031    0.0000 </r>
       <r>   30.5092    0.0000 </r>
      </set>
      <set comment="kpoint 18">
       <r>  -44.5910    1.0000 </r>
       <r>  -44.5043    1.0000 </r>
       <r>  -44.4945    1.0000 </r>
       <r>  -44.3809    1.0000 </r>
       <r>  -44.3539    1.0000 </r>
       <r>  -44.2989    1.0000 </r>
       <r>    4.1489    1.0000 </r>
       <r>    5.8193    1.0000 </r>
       <r>    5.9788    1.0000 </r>
       <r>    6.7953    1.0000 </r>
       <r>    6.9294    1.0000 </r>
       <r>    7.2680    1.0000 </r>
       <r>    8.2261    1.0000 </r>
       <r>    8.5460    1.0000 </r>
       <r>    8.8083    1.0000 </r>
       <r>    9.1281    1.0000 </r>
       <r>    9.4068    0.9270 </r>
       <r>   13.1245    0.0000 </r>
       <r>   20.3549    0.0000 </r>
       <r>   21.0652    0.0000 </r>
       <r>   25.4925    0.0000 </r>
       <r>   26.4578    0.0000 </r>
       <r>   30.1154    0.0000 </r>
       <r>   31.4558    0.0000 </r>
      </set>
      <set comment="kpoint 19">
       <r>  -44.5794    1.0000 </r>
       <r>  -44.5494    1.0000 </r>
       <r>  -44.4477    1.0000 </r>
       <r>  -44.3992    1.0000 </r>
       <r>  -44.3474    1.0000 </r>
       <r>  -44.3193    1.0000 </r>
       <r>    4.9805    1.0000 </r>
       <r>    5.5624    1.0000 </r>
       <r>    6.3100    1.0000 </r>
       <r>    6.5938    1.0000 </r>
       <r>    7.0942    1.0000 </r>
       <r>    7.2049    1.0000 </r>
       <r>    8.1539    1.0000 </r>
       <r>    8.2553    1.0000 </r>
       <r>    8.9737    1.0000 </r>
       <r>    9.1935    1.0000 </r>
       <r>    9.9047   -0.0495 </r>
       <r>   11.2099    0.0000 </r>
       <r>   21.9291    0.0000 </r>
       <r>   22.5762    0.0000 </r>
       <r>   23.6377    0.0000 </r>
       <r>   24.3863    0.0000 </r>
       <r>   31.2416    0.0000 </r>
       <r>   32.1310    0.0000 </r>
      </set>
      <set comment="kpoint 20">
       <r>  -44.5955    1.0000 </r>
       <r>  -44.5259    1.0000 </r>
       <r>  -44.4992    1.0000 </r>
       <r>  -44.3811    1.0000 </r>
       <r>  -44.3305    1.0000 </r>
       <r>  -44.2904    1.0000 </r>
       <r>    3.8868    1.0000 </r>
       <r>    5.7528    1.0000 </r>
       <r>    6.0633    1.0000 </r>
       <r>    6.6988    1.0000 </r>
       <r>    6.8477    1.0000 </r>
       <r>    7.0949    1.0000 </r>
       <r>    8.4903    1.0000 </r>
       <r>    8.6476    1.0000 </r>
       <r>    8.8034    1.0000 </r>
       <r>    9.0802    1.0000 </r>
       <r>    9.4848    0.8378 </r>
       <r>   15.5505    0.0000 </r>
       <r>   17.5341    0.0000 </r>
       <r>   20.3339    0.0000 </r>
       <r>   25.5634    0.0000 </r>
       <r>   27.9318    0.0000 </r>
       <r>   30.2206    0.0000 </r>
       <r>   30.2833    0.0000 </r>
      </set>
      <set comment="kpoint 21">
       <r>  -44.6082    1.0000 </r>
       <r>  -44.5469    1.0000 </r>
       <r>  -44.4916    1.0000 </r>
       <r>  -44.3626    1.0000 </r>
       <r>  -44.3490    1.0000 </r>
       <r>  -44.2939    1.0000 </r>
       <r>    4.5908    1.0000 </r>
       <r>    5.7248    1.0000 </r>
       <r>    6.3747    1.0000 </r>
       <r>    6.5799    1.0000 </r>
       <r>    6.9010    1.0000 </r>
       <r>    6.9069    1.0000 </r>
       <r>    8.4418    1.0000 </r>
       <r>    8.5424    1.0000 </r>
       <r>    8.7769    1.0000 </r>
       <r>    9.4402    1.0000 </r>
       <r>    9.6486    0.1949 </r>
       <r>   13.7018    0.0000 </r>
       <r>   18.2680    0.0000 </r>
       <r>   21.4250    0.0000 </r>
       <r>   23.3780    0.0000 </r>
       <r>   26.4175    0.0000 </r>
       <r>   30.0195    0.0000 </r>
       <r>   30.7693    0.0000 </r>
      </set>
      <set comment="kpoint 22">
       <r>  -44.6058    1.0000 </r>
       <r>  -44.5846    1.0000 </r>
       <r>  -44.4485    1.0000 </r>
       <r>  -44.4037    1.0000 </r>
       <r>  -44.3232    1.0000 </r>
       <r>  -44.3046    1.0000 </r>
       <r>    5.1413    1.0000 </r>
       <r>    5.5048    1.0000 </r>
       <r>    6.4598    1.0000 </r>
       <r>    6.5110    1.0000 </r>
       <r>    7.0545    1.0000 </r>
       <r>    7.0695    1.0000 </r>
       <r>    8.4029    1.0000 </r>
       <r>    8.4199    1.0000 </r>
       <r>    8.9773    1.0000 </r>
       <r>    9.2446    1.0149 </r>
       <r>   10.4635   -0.0551 </r>
       <r>   11.8106    0.0000 </r>
       <r>   19.6881    0.0000 </r>
       <r>   21.4031    0.0000 </r>
       <r>   22.8375    0.0000 </r>
       <r>   24.5276    0.0000 </r>
       <r>   30.5830    0.0000 </r>
       <r>   31.0100    0.0000 </r>
      </set>
      <set comment="kpoint 23">
       <r>  -44.6262    1.0000 </r>
       <r>  -44.5885    1.0000 </r>
       <r>  -44.4692    1.0000 </r>
       <r>  -44.3811    1.0000 </r>
       <r>  -44.3237    1.0000 </r>
       <r>  -44.2921    1.0000 </r>
       <r>    4.9328    1.0000 </r>
       <r>    5.4954    1.0000 </r>
       <r>    6.4122    1.0000 </r>
       <r>    6.5886    1.0000 </r>
       <r>    6.9875    1.0000 </r>
       <r>    7.2592    1.0000 </r>
       <r>    8.5124    1.0000 </r>
       <r>    8.5865    1.0000 </r>
       <r>    8.7369    1.0000 </r>
       <r>    9.4447    1.0068 </r>
       <r>   10.2604   -0.0186 </r>
       <r>   13.5563    0.0000 </r>
       <r>   17.1446    0.0000 </r>
       <r>   21.1507    0.0000 </r>
       <r>   22.3754    0.0000 </r>
       <r>   26.5224    0.0000 </r>
       <r>   28.2803    0.0000 </r>
       <r>   30.4811    0.0000 </r>
      </set>
      <set comment="kpoint 24">
       <r>  -44.6316    1.0000 </r>
       <r>  -44.6187    1.0000 </r>
       <r>  -44.4387    1.0000 </r>
       <r>  -44.4076    1.0000 </r>
       <r>  -44.3061    1.0000 </r>
[...]
       </set>
       <set comment="band 12">
        <r>  0.0000  0.0266  0.0149  0.0330  0.0435  0.0965  0.0297  0.0778  0.0694 </r>
        <r>  0.0000  0.0266  0.0149  0.0330  0.0435  0.0965  0.0297  0.0778  0.0694 </r>
       </set>
       <set comment="band 13">
        <r>  0.0000  0.0010  0.0001  0.0010  0.0094  0.0641  0.0351  0.0659  0.3106 </r>
        <r>  0.0000  0.0010  0.0001  0.0010  0.0094  0.0641  0.0351  0.0659  0.3106 </r>
       </set>
       <set comment="band 14">
        <r>  0.0000  0.0004  0.0013  0.0004  0.0836  0.0288  0.3106  0.0271  0.0351 </r>
        <r>  0.0000  0.0004  0.0013  0.0004  0.0836  0.0288  0.3106  0.0271  0.0351 </r>
       </set>
       <set comment="band 15">
        <r>  0.0000  0.0000  0.0000  0.0000  0.0159  0.0002  0.3051  0.0194  0.1478 </r>
        <r>  0.0000  0.0000  0.0000  0.0000  0.0159  0.0002  0.3051  0.0194  0.1478 </r>
       </set>
       <set comment="band 16">
        <r>  0.0000  0.0000  0.0000  0.0000  0.0077  0.0235  0.1478  0.0043  0.3051 </r>
        <r>  0.0000  0.0000  0.0000  0.0000  0.0077  0.0235  0.1478  0.0043  0.3051 </r>
       </set>
       <set comment="band 17">
        <r>  0.0250  0.0199  0.0199  0.0199  0.1216  0.1216  0.0000  0.1216  0.0000 </r>
        <r>  0.0250  0.0199  0.0199  0.0199  0.1216  0.1216  0.0000  0.1216  0.0000 </r>
       </set>
       <set comment="band 18">
        <r>  0.0000  0.0013  0.0765  0.0965  0.0747  0.0943  0.0352  0.0013  0.0183 </r>
        <r>  0.0000  0.0013  0.0765  0.0965  0.0747  0.0943  0.0352  0.0013  0.0183 </r>
       </set>
       <set comment="band 19">
        <r>  0.0000  0.1149  0.0397  0.0197  0.0389  0.0193  0.0183  0.1123  0.0352 </r>
        <r>  0.0000  0.1149  0.0397  0.0197  0.0389  0.0193  0.0183  0.1123  0.0352 </r>
       </set>
       <set comment="band 20">
        <r>  0.2670  0.0000  0.0000  0.0000  0.0373  0.0373  0.0000  0.0373  0.0000 </r>
        <r>  0.2670  0.0000  0.0000  0.0000  0.0373  0.0373  0.0000  0.0373  0.0000 </r>
       </set>
       <set comment="band 21">
        <r>  0.0000  0.0636  0.0966  0.0120  0.0879  0.0109  0.0181  0.0578  0.0034 </r>
        <r>  0.0000  0.0636  0.0966  0.0120  0.0879  0.0109  0.0181  0.0578  0.0034 </r>
       </set>
       <set comment="band 22">
        <r>  0.0000  0.0512  0.0182  0.1028  0.0165  0.0935  0.0034  0.0466  0.0181 </r>
        <r>  0.0000  0.0512  0.0182  0.1028  0.0165  0.0935  0.0034  0.0466  0.0181 </r>
       </set>
       <set comment="band 23">
        <r>  0.2449  0.0531  0.0531  0.0531  0.0018  0.0018  0.0000  0.0018  0.0000 </r>
        <r>  0.2449  0.0531  0.0531  0.0531  0.0018  0.0018  0.0000  0.0018  0.0000 </r>
       </set>
       <set comment="band 24">
        <r>  0.0491  0.0820  0.0820  0.0820  0.0283  0.0283  0.0000  0.0283  0.0000 </r>
        <r>  0.0491  0.0820  0.0820  0.0820  0.0283  0.0283  0.0000  0.0283  0.0000 </r>
       </set>
      </set>
      <set comment="kpoint 33">
       <set comment="band 1">
        <r>  0.0000  0.1309  0.1309  0.2344  0.0000  0.0000  0.0000  0.0000  0.0000 </r>
        <r>  0.0000  0.1309  0.1309  0.2344  0.0000  0.0000  0.0000  0.0000  0.0000 </r>
       </set>
       <set comment="band 2">
        <r>  0.0000  0.1039  0.1039  0.2884  0.0000  0.0001  0.0000  0.0000  0.0000 </r>
        <r>  0.0000  0.1039  0.1039  0.2884  0.0000  0.0001  0.0000  0.0000  0.0000 </r>
       </set>
       <set comment="band 3">
        <r>  0.0000  0.2486  0.2486  0.0000  0.0001  0.0000  0.0000  0.0001  0.0000 </r>
        <r>  0.0000  0.2486  0.2486  0.0000  0.0001  0.0000  0.0000  0.0001  0.0000 </r>
       </set>
       <set comment="band 4">
        <r>  0.0000  0.2489  0.2489  0.0000  0.0001  0.0000  0.0000  0.0001  0.0000 </r>
        <r>  0.0000  0.2489  0.2489  0.0000  0.0001  0.0000  0.0000  0.0001  0.0000 </r>
       </set>
       <set comment="band 5">
        <r>  0.0000  0.1178  0.1178  0.2630  0.0000  0.0001  0.0000  0.0000  0.0000 </r>
        <r>  0.0000  0.1178  0.1178  0.2630  0.0000  0.0001  0.0000  0.0000  0.0000 </r>
       </set>
       <set comment="band 6">
        <r>  0.0000  0.1450  0.1450  0.2088  0.0000  0.0000  0.0000  0.0000  0.0000 </r>
        <r>  0.0000  0.1450  0.1450  0.2088  0.0000  0.0000  0.0000  0.0000  0.0000 </r>
       </set>
       <set comment="band 7">
        <r>  0.0459  0.0252  0.0252  0.0112  0.1269  0.0025  0.0032  0.1269  0.0097 </r>
        <r>  0.0459  0.0252  0.0252  0.0112  0.1269  0.0025  0.0032  0.1269  0.0097 </r>
       </set>
       <set comment="band 8">
        <r>  0.0268  0.0108  0.0108  0.0011  0.1525  0.0490  0.0030  0.1525  0.0089 </r>
        <r>  0.0268  0.0108  0.0108  0.0011  0.1525  0.0490  0.0030  0.1525  0.0089 </r>
       </set>
       <set comment="band 9">
        <r>  0.0000  0.0194  0.0194  0.0000  0.1696  0.0000  0.0317  0.1696  0.0106 </r>
        <r>  0.0000  0.0194  0.0194  0.0000  0.1696  0.0000  0.0317  0.1696  0.0106 </r>
       </set>
       <set comment="band 10">
        <r>  0.0000  0.0281  0.0281  0.0000  0.1425  0.0000  0.0487  0.1425  0.0162 </r>
        <r>  0.0000  0.0281  0.0281  0.0000  0.1425  0.0000  0.0487  0.1425  0.0162 </r>
       </set>
       <set comment="band 11">
        <r>  0.0064  0.0025  0.0025  0.0523  0.0082  0.3293  0.0001  0.0082  0.0002 </r>
        <r>  0.0064  0.0025  0.0025  0.0523  0.0082  0.3293  0.0001  0.0082  0.0002 </r>
       </set>
       <set comment="band 12">
        <r>  0.0019  0.0092  0.0092  0.0634  0.0021  0.2760  0.0073  0.0021  0.0219 </r>
        <r>  0.0019  0.0092  0.0092  0.0634  0.0021  0.2760  0.0073  0.0021  0.0219 </r>
       </set>
       <set comment="band 13">
        <r>  0.0000  0.0003  0.0003  0.0000  0.0451  0.0000  0.2977  0.0451  0.0992 </r>
        <r>  0.0000  0.0003  0.0003  0.0000  0.0451  0.0000  0.2977  0.0451  0.0992 </r>
       </set>
       <set comment="band 14">
        <r>  0.0000  0.0001  0.0001  0.0000  0.0288  0.0000  0.3228  0.0288  0.1076 </r>
        <r>  0.0000  0.0001  0.0001  0.0000  0.0288  0.0000  0.3228  0.0288  0.1076 </r>
       </set>
       <set comment="band 15">
        <r>  0.0005  0.0001  0.0001  0.0006  0.0171  0.0290  0.1064  0.0171  0.3191 </r>
        <r>  0.0005  0.0001  0.0001  0.0006  0.0171  0.0290  0.1064  0.0171  0.3191 </r>
       </set>
       <set comment="band 16">
        <r>  0.0004  0.0000  0.0000  0.0001  0.0103  0.0000  0.1173  0.0103  0.3520 </r>
        <r>  0.0004  0.0000  0.0000  0.0001  0.0103  0.0000  0.1173  0.0103  0.3520 </r>
       </set>
       <set comment="band 17">
        <r>  0.0297  0.0216  0.0216  0.0426  0.0915  0.1260  0.0015  0.0915  0.0044 </r>
        <r>  0.0297  0.0216  0.0216  0.0426  0.0915  0.1260  0.0015  0.0915  0.0044 </r>
       </set>
       <set comment="band 18">
        <r>  0.0209  0.0248  0.0248  0.0799  0.0612  0.1103  0.0066  0.0612  0.0199 </r>
        <r>  0.0209  0.0248  0.0248  0.0799  0.0612  0.1103  0.0066  0.0612  0.0199 </r>
       </set>
       <set comment="band 19">
        <r>  0.0000  0.0895  0.0895  0.0000  0.0849  0.0000  0.0286  0.0849  0.0095 </r>
        <r>  0.0000  0.0895  0.0895  0.0000  0.0849  0.0000  0.0286  0.0849  0.0095 </r>
       </set>
       <set comment="band 20">
        <r>  0.2318  0.0017  0.0017  0.0348  0.0265  0.0509  0.0000  0.0265  0.0001 </r>
        <r>  0.2318  0.0017  0.0017  0.0348  0.0265  0.0509  0.0000  0.0265  0.0001 </r>
       </set>
       <set comment="band 21">
        <r>  0.0000  0.0892  0.0892  0.0000  0.0826  0.0000  0.0211  0.0826  0.0070 </r>
        <r>  0.0000  0.0892  0.0892  0.0000  0.0826  0.0000  0.0211  0.0826  0.0070 </r>
       </set>
       <set comment="band 22">
        <r>  0.1595  0.0006  0.0006  0.1012  0.0256  0.0525  0.0005  0.0256  0.0016 </r>
        <r>  0.1595  0.0006  0.0006  0.1012  0.0256  0.0525  0.0005  0.0256  0.0016 </r>
       </set>
       <set comment="band 23">
        <r>  0.1183  0.0856  0.0856  0.0169  0.0121  0.0430  0.0011  0.0121  0.0032 </r>
        <r>  0.1183  0.0856  0.0856  0.0169  0.0121  0.0430  0.0011  0.0121  0.0032 </r>
       </set>
       <set comment="band 24">
        <r>  0.0731  0.0849  0.0849  0.0488  0.0226  0.0369  0.0002  0.0226  0.0007 </r>
        <r>  0.0731  0.0849  0.0849  0.0488  0.0226  0.0369  0.0002  0.0226  0.0007 </r>
       </set>
      </set>
      <set comment="kpoint 34">
       <set comment="band 1">
        <r>  0.0000  0.2222  0.0517  0.2222  0.0000  0.0001  0.0000  0.0001  0.0000 </r>
        <r>  0.0000  0.2222  0.0517  0.2222  0.0000  0.0001  0.0000  0.0001  0.0000 </r>
       </set>
       <set comment="band 2">
        <r>  0.0000  0.2482  0.0000  0.2482  0.0000  0.0001  0.0000  0.0001  0.0000 </r>
        <r>  0.0000  0.2482  0.0000  0.2482  0.0000  0.0001  0.0000  0.0001  0.0000 </r>
       </set>
       <set comment="band 3">
        <r>  0.0000  0.0374  0.4226  0.0374  0.0001  0.0000  0.0000  0.0000  0.0000 </r>
        <r>  0.0000  0.0374  0.4226  0.0374  0.0001  0.0000  0.0000  0.0000  0.0000 </r>
       </set>
       <set comment="band 4">
        <r>  0.0000  0.0259  0.4458  0.0259  0.0001  0.0000  0.0000  0.0000  0.0000 </r>
        <r>  0.0000  0.0259  0.4458  0.0259  0.0001  0.0000  0.0000  0.0000  0.0000 </r>
       </set>
       <set comment="band 5">
        <r>  0.0000  0.2491  0.0000  0.2491  0.0000  0.0001  0.0000  0.0001  0.0000 </r>
        <r>  0.0000  0.2491  0.0000  0.2491  0.0000  0.0001  0.0000  0.0001  0.0000 </r>
       </set>
       <set comment="band 6">
        <r>  0.0000  0.2118  0.0749  0.2118  0.0000  0.0000  0.0000  0.0000  0.0000 </r>
        <r>  0.0000  0.2118  0.0749  0.2118  0.0000  0.0000  0.0000  0.0000  0.0000 </r>
       </set>
       <set comment="band 7">
        <r>  0.0191  0.0005  0.0314  0.0005  0.2658  0.0363  0.0218  0.0363  0.0000 </r>
        <r>  0.0191  0.0005  0.0314  0.0005  0.2658  0.0363  0.0218  0.0363  0.0000 </r>
       </set>
       <set comment="band 8">
        <r>  0.0234  0.0027  0.0441  0.0027  0.2944  0.0011  0.0273  0.0011  0.0000 </r>
        <r>  0.0234  0.0027  0.0441  0.0027  0.2944  0.0011  0.0273  0.0011  0.0000 </r>
       </set>
       <set comment="band 9">
        <r>  0.0000  0.0139  0.0000  0.0139  0.0000  0.2001  0.0000  0.2001  0.0032 </r>
        <r>  0.0000  0.0139  0.0000  0.0139  0.0000  0.2001  0.0000  0.2001  0.0032 </r>
       </set>
       <set comment="band 10">
        <r>  0.0001  0.0137  0.0131  0.0137  0.0407  0.1615  0.0168  0.1615  0.0000 </r>
        <r>  0.0001  0.0137  0.0131  0.0137  0.0407  0.1615  0.0168  0.1615  0.0000 </r>
       </set>
       <set comment="band 11">
        <r>  0.0048  0.0441  0.0000  0.0441  0.0144  0.1385  0.0039  0.1385  0.0000 </r>
        <r>  0.0048  0.0441  0.0000  0.0441  0.0144  0.1385  0.0039  0.1385  0.0000 </r>
       </set>
       <set comment="band 12">
        <r>  0.0000  0.0468  0.0000  0.0468  0.0000  0.1399  0.0000  0.1399  0.0134 </r>
        <r>  0.0000  0.0468  0.0000  0.0468  0.0000  0.1399  0.0000  0.1399  0.0134 </r>
       </set>
       <set comment="band 13">
        <r>  0.0003  0.0000  0.0002  0.0000  0.0502  0.0026  0.4336  0.0026  0.0000 </r>
        <r>  0.0003  0.0000  0.0002  0.0000  0.0502  0.0026  0.4336  0.0026  0.0000 </r>
       </set>
       <set comment="band 14">
        <r>  0.0002  0.0000  0.0001  0.0000  0.0427  0.0008  0.4451  0.0008  0.0000 </r>
        <r>  0.0002  0.0000  0.0001  0.0000  0.0427  0.0008  0.4451  0.0008  0.0000 </r>
       </set>
       <set comment="band 15">
        <r>  0.0000  0.0001  0.0000  0.0001  0.0000  0.0101  0.0000  0.0101  0.4705 </r>
        <r>  0.0000  0.0001  0.0000  0.0001  0.0000  0.0101  0.0000  0.0101  0.4705 </r>
       </set>
       <set comment="band 16">
        <r>  0.0000  0.0000  0.0000  0.0000  0.0000  0.0022  0.0000  0.0022  0.4866 </r>
        <r>  0.0000  0.0000  0.0000  0.0000  0.0000  0.0022  0.0000  0.0022  0.4866 </r>
       </set>
       <set comment="band 17">
        <r>  0.0247  0.0518  0.0134  0.0518  0.0493  0.1095  0.0012  0.1095  0.0000 </r>
        <r>  0.0247  0.0518  0.0134  0.0518  0.0493  0.1095  0.0012  0.1095  0.0000 </r>
       </set>
       <set comment="band 18">
        <r>  0.0000  0.0794  0.0000  0.0794  0.0000  0.1149  0.0000  0.1149  0.0083 </r>
        <r>  0.0000  0.0794  0.0000  0.0794  0.0000  0.1149  0.0000  0.1149  0.0083 </r>
       </set>
       <set comment="band 19">
        <r>  0.0989  0.0059  0.0801  0.0059  0.1796  0.0017  0.0206  0.0017  0.0000 </r>
        <r>  0.0989  0.0059  0.0801  0.0059  0.1796  0.0017  0.0206  0.0017  0.0000 </r>
       </set>
       <set comment="band 20">
        <r>  0.0890  0.0268  0.0583  0.0268  0.1385  0.0142  0.0157  0.0142  0.0000 </r>
        <r>  0.0890  0.0268  0.0583  0.0268  0.1385  0.0142  0.0157  0.0142  0.0000 </r>
       </set>
       <set comment="band 21">
        <r>  0.1380  0.0378  0.0330  0.0378  0.0002  0.0588  0.0033  0.0588  0.0000 </r>
        <r>  0.1380  0.0378  0.0330  0.0378  0.0002  0.0588  0.0033  0.0588  0.0000 </r>
       </set>
       <set comment="band 22">
        <r>  0.0000  0.0873  0.0000  0.0873  0.0000  0.0867  0.0000  0.0867  0.0026 </r>
        <r>  0.0000  0.0873  0.0000  0.0873  0.0000  0.0867  0.0000  0.0867  0.0026 </r>
       </set>
       <set comment="band 23">
        <r>  0.2257  0.0023  0.1334  0.0023  0.0181  0.0013  0.0046  0.0013  0.0000 </r>
        <r>  0.2257  0.0023  0.1334  0.0023  0.0181  0.0013  0.0046  0.0013  0.0000 </r>
       </set>
       <set comment="band 24">
        <r>  0.1097  0.0461  0.0933  0.0461  0.0206  0.0284  0.0014  0.0284  0.0000 </r>
        <r>  0.1097  0.0461  0.0933  0.0461  0.0206  0.0284  0.0014  0.0284  0.0000 </r>
       </set>
      </set>
      <set comment="kpoint 35">
       <set comment="band 1">
        <r>  0.0000  0.1655  0.1655  0.1655  0.0000  0.0000  0.0000  0.0000  0.0000 </r>
        <r>  0.0000  0.1655  0.1655  0.1655  0.0000  0.0000  0.0000  0.0000  0.0000 </r>
       </set>
       <set comment="band 2">
        <r>  0.0000  0.2776  0.1695  0.0499  0.0001  0.0000  0.0000  0.0001  0.0000 </r>
        <r>  0.0000  0.2776  0.1695  0.0499  0.0001  0.0000  0.0000  0.0001  0.0000 </r>
       </set>
       <set comment="band 3">
        <r>  0.0000  0.0537  0.1618  0.2814  0.0001  0.0001  0.0000  0.0000  0.0000 </r>
        <r>  0.0000  0.0537  0.1618  0.2814  0.0001  0.0001  0.0000  0.0000  0.0000 </r>
       </set>
       <set comment="band 4">
        <r>  0.0000  0.1492  0.0478  0.3006  0.0000  0.0001  0.0000  0.0000  0.0000 </r>
        <r>  0.0000  0.1492  0.0478  0.3006  0.0000  0.0001  0.0000  0.0000  0.0000 </r>
       </set>
       <set comment="band 5">
        <r>  0.0000  0.1825  0.2839  0.0312  0.0001  0.0000  0.0000  0.0001  0.0000 </r>
        <r>  0.0000  0.1825  0.2839  0.0312  0.0001  0.0000  0.0000  0.0001  0.0000 </r>
       </set>
       <set comment="band 6">
        <r>  0.0000  0.1660  0.1660  0.1660  0.0000  0.0000  0.0000  0.0000  0.0000 </r>
        <r>  0.0000  0.1660  0.1660  0.1660  0.0000  0.0000  0.0000  0.0000  0.0000 </r>
       </set>
       <set comment="band 7">
        <r>  0.0055  0.0117  0.0117  0.0117  0.1269  0.1269  0.0000  0.1269  0.0000 </r>
        <r>  0.0055  0.0117  0.0117  0.0117  0.1269  0.1269  0.0000  0.1269  0.0000 </r>
       </set>
       <set comment="band 8">
        <r>  0.0000  0.0105  0.0077  0.0273  0.0622  0.2199  0.0013  0.0850  0.0039 </r>
        <r>  0.0000  0.0105  0.0077  0.0273  0.0622  0.2199  0.0013  0.0850  0.0039 </r>
       </set>
       <set comment="band 9">
        <r>  0.0000  0.0198  0.0226  0.0031  0.1825  0.0248  0.0039  0.1597  0.0013 </r>
        <r>  0.0000  0.0198  0.0226  0.0031  0.1825  0.0248  0.0039  0.1597  0.0013 </r>
       </set>
       <set comment="band 10">
        <r>  0.0089  0.0261  0.0261  0.0261  0.1012  0.1012  0.0000  0.1012  0.0000 </r>
        <r>  0.0089  0.0261  0.0261  0.0261  0.1012  0.1012  0.0000  0.1012  0.0000 </r>
       </set>
       <set comment="band 11">
        <r>  0.0000  0.0326  0.0278  0.0070  0.1352  0.0342  0.0050  0.1582  0.0031 </r>
        <r>  0.0000  0.0326  0.0278  0.0070  0.1352  0.0342  0.0050  0.1582  0.0031 </r>
       </set>
       <set comment="band 12">
        <r>  0.0000  0.0124  0.0171  0.0379  0.0832  0.1842  0.0031  0.0601  0.0050 </r>
        <r>  0.0000  0.0124  0.0171  0.0379  0.0832  0.1842  0.0031  0.0601  0.0050 </r>
       </set>
       <set comment="band 13">
        <r>  0.0000  0.0000  0.0000  0.0000  0.0031  0.0062  0.1895  0.0026  0.2897 </r>
        <r>  0.0000  0.0000  0.0000  0.0000  0.0031  0.0062  0.1895  0.0026  0.2897 </r>
       </set>
       <set comment="band 14">
        <r>  0.0000  0.0000  0.0000  0.0000  0.0048  0.0018  0.2897  0.0053  0.1895 </r>
        <r>  0.0000  0.0000  0.0000  0.0000  0.0048  0.0018  0.2897  0.0053  0.1895 </r>
       </set>
       <set comment="band 15">
        <r>  0.0000  0.0000  0.0000  0.0000  0.0039  0.0034  0.3861  0.0000  0.0978 </r>
        <r>  0.0000  0.0000  0.0000  0.0000  0.0039  0.0034  0.3861  0.0000  0.0978 </r>
       </set>
       <set comment="band 16">
        <r>  0.0000  0.0000  0.0000  0.0000  0.0010  0.0015  0.0978  0.0049  0.3861 </r>
        <r>  0.0000  0.0000  0.0000  0.0000  0.0010  0.0015  0.0978  0.0049  0.3861 </r>
       </set>
       <set comment="band 17">
        <r>  0.0277  0.0451  0.0451  0.0451  0.0781  0.0781  0.0000  0.0781  0.0000 </r>
        <r>  0.0277  0.0451  0.0451  0.0451  0.0781  0.0781  0.0000  0.0781  0.0000 </r>
       </set>
       <set comment="band 18">
        <r>  0.0000  0.0121  0.1103  0.0494  0.1338  0.0600  0.0050  0.0146  0.0002 </r>
        <r>  0.0000  0.0121  0.1103  0.0494  0.1338  0.0600  0.0050  0.0146  0.0002 </r>
       </set>
       <set comment="band 19">
        <r>  0.0000  0.1024  0.0042  0.0651  0.0051  0.0790  0.0002  0.1243  0.0050 </r>
        <r>  0.0000  0.1024  0.0042  0.0651  0.0051  0.0790  0.0002  0.1243  0.0050 </r>
       </set>
       <set comment="band 20">
        <r>  0.1929  0.0188  0.0188  0.0188  0.0421  0.0421  0.0000  0.0421  0.0000 </r>
        <r>  0.1929  0.0188  0.0188  0.0188  0.0421  0.0421  0.0000  0.0421  0.0000 </r>
       </set>
       <set comment="band 21">
        <r>  0.0000  0.0652  0.0133  0.0982  0.0144  0.1062  0.0004  0.0705  0.0032 </r>
        <r>  0.0000  0.0652  0.0133  0.0982  0.0144  0.1062  0.0004  0.0705  0.0032 </r>
       </set>
       <set comment="band 22">
        <r>  0.0000  0.0526  0.1045  0.0196  0.1130  0.0212  0.0032  0.0569  0.0004 </r>
        <r>  0.0000  0.0526  0.1045  0.0196  0.1130  0.0212  0.0032  0.0569  0.0004 </r>
       </set>
       <set comment="band 23">
        <r>  0.3402  0.0133  0.0133  0.0133  0.0007  0.0007  0.0000  0.0007  0.0000 </r>
        <r>  0.3402  0.0133  0.0133  0.0133  0.0007  0.0007  0.0000  0.0007  0.0000 </r>
       </set>
       <set comment="band 24">
        <r>  0.1777  0.0432  0.0432  0.0432  0.0226  0.0226  0.0000  0.0226  0.0000 </r>
        <r>  0.1777  0.0432  0.0432  0.0432  0.0226  0.0226  0.0000  0.0226  0.0000 </r>
       </set>
      </set>
     </set>
    </set>
   </array>
  </projected>
 </calculation>
 <structure name="finalpos" >
  <crystal>
   <varray name="basis" >
    <v>       2.84005200       0.00000000       0.00000000 </v>
    <v>       0.00000000       2.84005200       0.00000000 </v>
    <v>       0.00000000       0.00000000       2.84005200 </v>
   </varray>
   <i name="volume">     22.90756226 </i>
   <varray name="rec_basis" >
    <v>       0.35210623       0.00000000       0.00000000 </v>
    <v>       0.00000000       0.35210623       0.00000000 </v>
    <v>       0.00000000       0.00000000       0.35210623 </v>
   </varray>
  </crystal>
  <varray name="positions" >
   <v>       0.00000000       0.00000000       0.00000000 </v>
   <v>       0.50000000       0.50000000       0.50000000 </v>
  </varray>
 </structure>
</modeling>
