=========================================
SLURM_JOB_ID = 31796663
SLURM_JOB_NODELIST = lnode57
SLURM_GPUS = 
SLURM_CPUS_ON_NODE = 8
SLURM_JOB_PARTITION = lenovo
SLURM_TASK_PID = 1806706
CUDA_VISIBLE_DEVICES = 
==========================================
 running on    8 total cores
 distrk:  each k-point on    8 cores,    1 groups
 distr:  one band on    4 cores,    2 groups
 using from now: INCAR     
 vasp.5.4.4.18Apr17-6-g9f103f2a35 (build Apr 28 2018 00:24:27) complex          
  
 POSCAR found type information on POSCAR  Fe
 POSCAR found :  1 types and       2 ions
 scaLAPACK will be used
 LDA part: xc-table for Pade appr. of Perdew
 POSCAR, INCAR and KPOINTS ok, starting setup
 FFT: planning ...
 WAVECAR not read
 entering main loop
       N       E                     dE             d eps       ncg     rms          rms(c)
DAV:   1     0.830809417227E+02    0.83081E+02   -0.82178E+03  1520   0.124E+03
DAV:   2    -0.128826863782E+02   -0.95964E+02   -0.87459E+02  1446   0.213E+02
DAV:   3    -0.159645178529E+02   -0.30818E+01   -0.30051E+01  1576   0.507E+01
DAV:   4    -0.159893536645E+02   -0.24836E-01   -0.24850E-01  1576   0.426E+00
DAV:   5    -0.159896274409E+02   -0.27378E-03   -0.27435E-03  1548   0.402E-01    0.204E+01
RMM:   6    -0.165686682264E+02   -0.57904E+00   -0.61728E+00  1440   0.289E+01    0.615E+00
RMM:   7    -0.165168712317E+02    0.51797E-01   -0.17470E-01  1440   0.513E+00    0.441E+00
RMM:   8    -0.164961272732E+02    0.20744E-01   -0.95759E-03  1440   0.822E-01    0.150E+00
RMM:   9    -0.164870698569E+02    0.90574E-02   -0.33601E-03  1440   0.509E-01    0.425E-01
RMM:  10    -0.164862019468E+02    0.86791E-03   -0.18901E-03  1440   0.511E-01    0.605E-02
RMM:  11    -0.164862976322E+02   -0.95685E-04   -0.80588E-05  1440   0.796E-02    0.584E-02
RMM:  12    -0.164863180041E+02   -0.20372E-04   -0.67371E-06  1269   0.247E-02    0.176E-02
RMM:  13    -0.164863191880E+02   -0.11838E-05   -0.20442E-06  1055   0.157E-02    0.468E-03
RMM:  14    -0.164863150398E+02    0.41481E-05   -0.16326E-07   892   0.359E-03    0.186E-03
RMM:  15    -0.164863140146E+02    0.10253E-05   -0.45276E-08   884   0.224E-03    0.125E-03
RMM:  16    -0.164863127237E+02    0.12909E-05   -0.38730E-09   471   0.934E-04    0.335E-04
RMM:  17    -0.164863124935E+02    0.23018E-06   -0.30457E-10   352   0.694E-04
   1 F= -.16486312E+02 E0= -.16486312E+02  d E =-.164863E+02  mag=     4.3295
 curvature:   0.00 expect dE= 0.000E+00 dE for cont linesearch  0.000E+00
 trial: gam= 0.00000 g(F)=  0.121E-61 g(S)=  0.865E-02 ort = 0.000E+00 (trialstep = 0.100E+01)
 search vector abs. value=  0.865E-02
 bond charge predicted
       N       E                     dE             d eps       ncg     rms          rms(c)
DAV:   1    -0.165811622431E+02   -0.94850E-01   -0.11534E+00  1536   0.186E+01    0.300E+00
RMM:   2    -0.164926387160E+02    0.88524E-01   -0.22377E-01  1440   0.568E+00    0.256E+00
RMM:   3    -0.164834645880E+02    0.91741E-02   -0.11937E-02  1440   0.128E+00    0.865E-01
RMM:   4    -0.164824240187E+02    0.10406E-02   -0.48003E-04  1440   0.244E-01    0.206E-01
RMM:   5    -0.164818831579E+02    0.54086E-03   -0.37691E-04  1440   0.200E-01    0.329E-02
RMM:   6    -0.164819150408E+02   -0.31883E-04   -0.52107E-05  1440   0.832E-02    0.155E-02
RMM:   7    -0.164819079517E+02    0.70891E-05   -0.31932E-06  1142   0.163E-02    0.880E-03
RMM:   8    -0.164819111921E+02   -0.32404E-05   -0.36551E-07   916   0.611E-03    0.283E-03
RMM:   9    -0.164819104555E+02    0.73657E-06   -0.75718E-08   892   0.251E-03
   2 F= -.16481910E+02 E0= -.16481910E+02  d E =0.440204E-02  mag=     4.2378
 trial-energy change:    0.004402  1 .order   -0.000110   -0.008646    0.008426
 step:   0.5065(harm=  0.5065)  dis= 0.00000  next Energy=   -16.488502 (dE=-0.219E-02)
 bond charge predicted
       N       E                     dE             d eps       ncg     rms          rms(c)
DAV:   1    -0.165168030839E+02   -0.34892E-01   -0.28505E-01  1518   0.937E+00    0.156E+00
RMM:   2    -0.164880695072E+02    0.28734E-01   -0.63259E-02  1440   0.300E+00    0.143E+00
RMM:   3    -0.164879092353E+02    0.16027E-03   -0.42236E-03  1440   0.753E-01    0.424E-01
RMM:   4    -0.164875918351E+02    0.31740E-03   -0.17231E-04  1440   0.147E-01    0.112E-01
RMM:   5    -0.164871728736E+02    0.41896E-03   -0.11198E-04  1440   0.114E-01    0.160E-02
RMM:   6    -0.164871692296E+02    0.36440E-05   -0.64611E-06  1318   0.264E-02    0.862E-03
RMM:   7    -0.164871745098E+02   -0.52802E-05   -0.71879E-07   939   0.857E-03    0.519E-03
RMM:   8    -0.164871732780E+02    0.12318E-05   -0.21507E-07   906   0.386E-03    0.159E-03
RMM:   9    -0.164871757851E+02   -0.25071E-05   -0.33777E-08   843   0.191E-03    0.771E-04
RMM:  10    -0.164871767180E+02   -0.93296E-06   -0.46560E-09   517   0.100E-03
   3 F= -.16487177E+02 E0= -.16487177E+02  d E =-.864224E-03  mag=     4.2873
 curvature:  -0.25 expect dE=-0.781E-06 dE for cont linesearch -0.781E-06
 trial: gam=-0.01853 g(F)=  0.122E-61 g(S)=  0.308E-05 ort = 0.163E-03 (trialstep = 0.901E+00)
 search vector abs. value=  0.120E-08
 reached required accuracy - stopping structural energy minimisation
