 vasp.5.4.4.18Apr17-6-g9f103f2a35 (build Apr 28 2018 00:24:27) complex          
  
 executed on             LinuxIFC date 2021.03.24  17:50:18
 running on    8 total cores
 distrk:  each k-point on    8 cores,    1 groups
 distr:  one band on NCORES_PER_BAND=   4 cores,    2 groups


--------------------------------------------------------------------------------------------------------


 INCAR:
 POTCAR:    PAW_PBE Fe 06Sep2000                  
 POTCAR:    PAW_PBE Fe 06Sep2000                  
   SHA256 =  cd5a22d9368cc8b5cc476bea79732366149640da08ac9009b0e1b7fc627eea28 Fe
   COPYR  = (c) Copyright 06Sep2000 Georg Kresse                                
   COPYR  = This file is part of the software VASP. Any use, copying, and all ot
   COPYR  = If you do not have a valid VASP license, you may not use, copy or di
   VRHFIN =Fe:  d7 s1                                                           
   LEXCH  = PE                                                                  
   EATOM  =   594.3153 eV,   43.6809 Ry                                         
                                                                                
   TITEL  = PAW_PBE Fe 06Sep2000                                                
   LULTRA =        F    use ultrasoft PP ?                                      
   IUNSCR =        1    unscreen: 0-lin 1-nonlin 2-no                           
   RPACOR =    2.000    partial core radius                                     
   POMASS =   55.847; ZVAL   =    8.000    mass and valenz                      
   RCORE  =    2.300    outmost cutoff radius                                   
   RWIGS  =    2.460; RWIGS  =    1.302    wigner-seitz radius (au A)           
   ENMAX  =  267.882; ENMIN  =  200.911 eV                                      
   RCLOC  =    1.701    cutoff for local pot                                    
   LCOR   =        T    correct aug charges                                     
   LPAW   =        T    paw PP                                                  
   EAUG   =  511.368                                                            
   DEXC   =    0.000                                                            
   RMAX   =    2.356    core radius for proj-oper                               
   RAUG   =    1.300    factor for augmentation sphere                          
   RDEP   =    2.442    radius for radial grids                                 
   RDEPT  =    1.890    core radius for aug-charge                              
                                                                                
   Atomic configuration                                                         
    9 entries                                                                   
     n  l   j            E        occ.                                          
     1  0  0.50     -6993.8440   2.0000                                         
     2  0  0.50      -814.6047   2.0000                                         
     2  1  1.50      -693.3689   6.0000                                         
     3  0  0.50       -89.4732   2.0000                                         
     3  1  1.50       -55.6373   6.0000                                         
     3  2  2.50        -3.8151   7.0000                                         
     4  0  0.50        -4.2551   1.0000                                         
     4  1  1.50        -3.4015   0.0000                                         
     4  3  2.50        -1.3606   0.0000                                         
   Description                                                                  
     l       E           TYP  RCUT    TYP  RCUT                                 
     2     -3.8151135     23  2.300                                             
     2     -5.1756961     23  2.300                                             
     0     -4.2550963     23  2.300                                             
     0      7.2035603     23  2.300                                             
     1     -2.7211652     23  2.300                                             
     1     18.4316424     23  2.300                                             
  local pseudopotential read in
  partial core-charges read in
  partial kinetic energy density read in
  atomic valenz-charges read in
  non local Contribution for L=           2  read in
    real space projection operators read in
  non local Contribution for L=           2  read in
    real space projection operators read in
  non local Contribution for L=           0  read in
    real space projection operators read in
  non local Contribution for L=           0  read in
    real space projection operators read in
  non local Contribution for L=           1  read in
    real space projection operators read in
  non local Contribution for L=           1  read in
    real space projection operators read in
    PAW grid and wavefunctions read in
 
   number of l-projection  operators is LMAX  =           6
   number of lm-projection operators is LMMAX =          18
 
  PAW_PBE Fe 06Sep2000                  :
 energy of atom  1       EATOM= -594.3153
 kinetic energy error for atom=    0.0026 (will be added to EATOM!!)
 
 
 POSCAR: Fe2                                     
  positions in direct lattice
  No initial velocities read in
 exchange correlation table for  LEXCH =        8
   RHO(1)=    0.500       N(1)  =     2000
   RHO(2)=  100.500       N(2)  =     4000
 


--------------------------------------------------------------------------------------------------------


 ion  position               nearest neighbor table
   1  0.000  0.000  0.000-   2 2.46   2 2.46   2 2.46   2 2.46   2 2.46   2 2.46   2 2.46   2 2.46

   2  0.500  0.500  0.500-   1 2.46   1 2.46   1 2.46   1 2.46   1 2.46   1 2.46   1 2.46   1 2.46

 
  LATTYP: Found a simple cubic cell.
 ALAT       =     2.8400520000
  
  Lattice vectors:
  
 A1 = (   2.8400520000,   0.0000000000,   0.0000000000)
 A2 = (   0.0000000000,   2.8400520000,   0.0000000000)
 A3 = (   0.0000000000,   0.0000000000,   2.8400520000)


Analysis of symmetry for initial positions (statically):
=====================================================================
 Subroutine PRICEL returns following result:
 
  LATTYP: Found a body centered cubic cell.
 ALAT       =     2.8400520000
  
  Lattice vectors:
  
 A1 = (   1.4200260000,   1.4200260000,   1.4200260000)
 A2 = (   1.4200260000,  -1.4200260000,  -1.4200260000)
 A3 = (  -1.4200260000,   1.4200260000,  -1.4200260000)
 
   2 primitive cells build up your supercell.
 

 Routine SETGRP: Setting up the symmetry group for a 
 simple cubic supercell.


 Subroutine GETGRP returns: Found 48 space group operations
 (whereof 48 operations were pure point group operations)
 out of a pool of 48 trial point group operations.


The static configuration has the point symmetry O_h .


Analysis of symmetry for dynamics (positions and initial velocities):
=====================================================================
 Subroutine PRICEL returns following result:
 
  LATTYP: Found a body centered cubic cell.
 ALAT       =     2.8400520000
  
  Lattice vectors:
  
 A1 = (   1.4200260000,   1.4200260000,   1.4200260000)
 A2 = (   1.4200260000,  -1.4200260000,  -1.4200260000)
 A3 = (  -1.4200260000,   1.4200260000,  -1.4200260000)
 
   2 primitive cells build up your supercell.
 

 Routine SETGRP: Setting up the symmetry group for a 
 simple cubic supercell.


 Subroutine GETGRP returns: Found 48 space group operations
 (whereof 48 operations were pure point group operations)
 out of a pool of 48 trial point group operations.


The dynamic configuration has the point symmetry O_h .


Analysis of structural, dynamic, and magnetic symmetry:
=====================================================================
 Subroutine PRICEL returns following result:
 
  LATTYP: Found a body centered cubic cell.
 ALAT       =     2.8400520000
  
  Lattice vectors:
  
 A1 = (   1.4200260000,   1.4200260000,   1.4200260000)
 A2 = (   1.4200260000,  -1.4200260000,  -1.4200260000)
 A3 = (  -1.4200260000,   1.4200260000,  -1.4200260000)
 
   2 primitive cells build up your supercell.
 

 Routine SETGRP: Setting up the symmetry group for a 
 simple cubic supercell.


 Subroutine GETGRP returns: Found 48 space group operations
 (whereof 48 operations were pure point group operations)
 out of a pool of 48 trial point group operations.


The magnetic configuration has the point symmetry O_h .


 Subroutine INISYM returns: Found 48 space group operations
 (whereof 48 operations are pure point group operations),
 and found     2 'primitive' translations

 
 
 KPOINTS: pymatgen v2021.2.8.1 with grid density =

Automatic generation of k-mesh.
Space group operators:
 irot       det(A)        alpha          n_x          n_y          n_z        tau_x        tau_y        tau_z
    1     1.000000     0.000000     1.000000     0.000000     0.000000     0.000000     0.000000     0.000000
    2    -1.000000     0.000000     1.000000     0.000000     0.000000     0.000000     0.000000     0.000000
    3     1.000000   120.000000    -0.577350    -0.577350    -0.577350     0.000000     0.000000     0.000000
    4    -1.000000   120.000000    -0.577350    -0.577350    -0.577350     0.000000     0.000000     0.000000
    5     1.000000   120.000000     0.577350     0.577350     0.577350     0.000000     0.000000     0.000000
    6    -1.000000   120.000000     0.577350     0.577350     0.577350     0.000000     0.000000     0.000000
    7     1.000000    90.000000     0.000000     0.000000    -1.000000     0.000000     0.000000     0.000000
    8    -1.000000    90.000000     0.000000     0.000000    -1.000000     0.000000     0.000000     0.000000
    9     1.000000   180.000000     0.000000     0.707107     0.707107     0.000000     0.000000     0.000000
   10    -1.000000   180.000000     0.000000     0.707107     0.707107     0.000000     0.000000     0.000000
   11     1.000000    90.000000     0.000000     1.000000     0.000000     0.000000     0.000000     0.000000
   12    -1.000000    90.000000     0.000000     1.000000     0.000000     0.000000     0.000000     0.000000
   13     1.000000   180.000000     0.000000     0.000000     1.000000     0.000000     0.000000     0.000000
   14    -1.000000   180.000000     0.000000     0.000000     1.000000     0.000000     0.000000     0.000000
   15     1.000000   120.000000    -0.577350     0.577350     0.577350     0.000000     0.000000     0.000000
   16    -1.000000   120.000000    -0.577350     0.577350     0.577350     0.000000     0.000000     0.000000
   17     1.000000   120.000000    -0.577350     0.577350    -0.577350     0.000000     0.000000     0.000000
   18    -1.000000   120.000000    -0.577350     0.577350    -0.577350     0.000000     0.000000     0.000000
   19     1.000000    90.000000     0.000000     0.000000     1.000000     0.000000     0.000000     0.000000
   20    -1.000000    90.000000     0.000000     0.000000     1.000000     0.000000     0.000000     0.000000
   21     1.000000    90.000000    -1.000000     0.000000     0.000000     0.000000     0.000000     0.000000
   22    -1.000000    90.000000    -1.000000     0.000000     0.000000     0.000000     0.000000     0.000000
   23     1.000000   180.000000     0.707107     0.000000     0.707107     0.000000     0.000000     0.000000
   24    -1.000000   180.000000     0.707107     0.000000     0.707107     0.000000     0.000000     0.000000
   25     1.000000   120.000000     0.577350    -0.577350     0.577350     0.000000     0.000000     0.000000
   26    -1.000000   120.000000     0.577350    -0.577350     0.577350     0.000000     0.000000     0.000000
   27     1.000000   120.000000    -0.577350    -0.577350     0.577350     0.000000     0.000000     0.000000
   28    -1.000000   120.000000    -0.577350    -0.577350     0.577350     0.000000     0.000000     0.000000
   29     1.000000   180.000000     1.000000     0.000000     0.000000     0.000000     0.000000     0.000000
   30    -1.000000   180.000000     1.000000     0.000000     0.000000     0.000000     0.000000     0.000000
   31     1.000000    90.000000     0.000000    -1.000000     0.000000     0.000000     0.000000     0.000000
   32    -1.000000    90.000000     0.000000    -1.000000     0.000000     0.000000     0.000000     0.000000
   33     1.000000   180.000000     0.707107     0.707107     0.000000     0.000000     0.000000     0.000000
   34    -1.000000   180.000000     0.707107     0.707107     0.000000     0.000000     0.000000     0.000000
   35     1.000000    90.000000     1.000000     0.000000     0.000000     0.000000     0.000000     0.000000
   36    -1.000000    90.000000     1.000000     0.000000     0.000000     0.000000     0.000000     0.000000
   37     1.000000   120.000000     0.577350    -0.577350    -0.577350     0.000000     0.000000     0.000000
   38    -1.000000   120.000000     0.577350    -0.577350    -0.577350     0.000000     0.000000     0.000000
   39     1.000000   180.000000     0.000000     1.000000     0.000000     0.000000     0.000000     0.000000
   40    -1.000000   180.000000     0.000000     1.000000     0.000000     0.000000     0.000000     0.000000
   41     1.000000   120.000000     0.577350     0.577350    -0.577350     0.000000     0.000000     0.000000
   42    -1.000000   120.000000     0.577350     0.577350    -0.577350     0.000000     0.000000     0.000000
   43     1.000000   180.000000     0.000000    -0.707107     0.707107     0.000000     0.000000     0.000000
   44    -1.000000   180.000000     0.000000    -0.707107     0.707107     0.000000     0.000000     0.000000
   45     1.000000   180.000000     0.707107    -0.707107     0.000000     0.000000     0.000000     0.000000
   46    -1.000000   180.000000     0.707107    -0.707107     0.000000     0.000000     0.000000     0.000000
   47     1.000000   180.000000     0.707107     0.000000    -0.707107     0.000000     0.000000     0.000000
   48    -1.000000   180.000000     0.707107     0.000000    -0.707107     0.000000     0.000000     0.000000
 
 Subroutine IBZKPT returns following result:
 ===========================================
 
 Found     20 irreducible k-points:
 
 Following reciprocal coordinates:
            Coordinates               Weight
  0.062500  0.062500  0.062500      8.000000
  0.187500  0.062500  0.062500     24.000000
  0.312500  0.062500  0.062500     24.000000
  0.437500  0.062500  0.062500     24.000000
  0.187500  0.187500  0.062500     24.000000
  0.312500  0.187500  0.062500     48.000000
  0.437500  0.187500  0.062500     48.000000
  0.312500  0.312500  0.062500     24.000000
  0.437500  0.312500  0.062500     48.000000
  0.437500  0.437500  0.062500     24.000000
  0.187500  0.187500  0.187500      8.000000
  0.312500  0.187500  0.187500     24.000000
  0.437500  0.187500  0.187500     24.000000
  0.312500  0.312500  0.187500     24.000000
  0.437500  0.312500  0.187500     48.000000
  0.437500  0.437500  0.187500     24.000000
  0.312500  0.312500  0.312500      8.000000
  0.437500  0.312500  0.312500     24.000000
  0.437500  0.437500  0.312500     24.000000
  0.437500  0.437500  0.437500      8.000000
 
 Following cartesian coordinates:
            Coordinates               Weight
  0.022007  0.022007  0.022007      8.000000
  0.066020  0.022007  0.022007     24.000000
  0.110033  0.022007  0.022007     24.000000
  0.154046  0.022007  0.022007     24.000000
  0.066020  0.066020  0.022007     24.000000
  0.110033  0.066020  0.022007     48.000000
  0.154046  0.066020  0.022007     48.000000
  0.110033  0.110033  0.022007     24.000000
  0.154046  0.110033  0.022007     48.000000
  0.154046  0.154046  0.022007     24.000000
  0.066020  0.066020  0.066020      8.000000
  0.110033  0.066020  0.066020     24.000000
  0.154046  0.066020  0.066020     24.000000
  0.110033  0.110033  0.066020     24.000000
  0.154046  0.110033  0.066020     48.000000
  0.154046  0.154046  0.066020     24.000000
  0.110033  0.110033  0.110033      8.000000
  0.154046  0.110033  0.110033     24.000000
  0.154046  0.154046  0.110033     24.000000
  0.154046  0.154046  0.154046      8.000000
 
 TETIRR: Found    229 inequivalent tetrahedra from     3072


--------------------------------------------------------------------------------------------------------




 Dimension of arrays:
   k-points           NKPTS =     20   k-points in BZ     NKDIM =     20   number of bands    NBANDS=     18
   number of dos      NEDOS =    301   number of ions     NIONS =      2
   non local maximal  LDIM  =      6   non local SUM 2l+1 LMDIM =     18
   total plane-waves  NPLWV =  13824
   max r-space proj   IRMAX =      1   max aug-charges    IRDMAX=  21694
   dimension x,y,z NGX =    24 NGY =   24 NGZ =   24
   dimension x,y,z NGXF=    48 NGYF=   48 NGZF=   48
   support grid    NGXF=    48 NGYF=   48 NGZF=   48
   ions per type =               2
   NGX,Y,Z   is equivalent  to a cutoff of  14.05, 14.05, 14.05 a.u.
   NGXF,Y,Z  is equivalent  to a cutoff of  28.10, 28.10, 28.10 a.u.

 SYSTEM =  "Fe-alpha"                              
 POSCAR =  Fe2                                     

 Startparameter for this run:
   NWRITE =      2    write-flag & timer
   PREC   = accura    normal or accurate (medium, high low for compatibility)
   ISTART =      0    job   : 0-new  1-cont  2-samecut
   ICHARG =      2    charge: 1-file 2-atom 10-const
   ISPIN  =      2    spin polarized calculation?
   LNONCOLLINEAR =      F non collinear calculations
   LSORBIT =      F    spin-orbit coupling
   INIWAV =      1    electr: 0-lowe 1-rand  2-diag
   LASPH  =      T    aspherical Exc in radial PAW
   METAGGA=      F    non-selfconsistent MetaGGA calc.

 Electronic Relaxation 1
   ENCUT  =  520.0 eV  38.22 Ry    6.18 a.u.   5.28  5.28  5.28*2*pi/ulx,y,z
   ENINI  =  520.0     initial cutoff
   ENAUG  =  511.4 eV  augmentation charge cutoff
   NELM   =    100;   NELMIN=  2; NELMDL= -5     # of ELM steps 
   EDIFF  = 0.1E-05   stopping-criterion for ELM
   LREAL  =      F    real-space projection
   NLSPLINE    = F    spline interpolate recip. space projectors
   LCOMPAT=      F    compatible to vasp.4.4
   GGA_COMPAT  = T    GGA compatible to vasp.4.4-vasp.4.6
   LMAXPAW     = -100 max onsite density
   LMAXMIX     =    2 max onsite mixed and CHGCAR
   VOSKOWN=      0    Vosko Wilk Nusair interpolation
   ROPT   =    0.00000
 Ionic relaxation
   EDIFFG = 0.1E-04   stopping-criterion for IOM
   NSW    =     99    number of steps for IOM
   NBLOCK =      1;   KBLOCK =     99    inner block; outer block 
   IBRION =      2    ionic relax: 0-MD 1-quasi-New 2-CG
   NFREE  =      1    steps in history (QN), initial steepest desc. (CG)
   ISIF   =      3    stress and relaxation
   IWAVPR =     11    prediction:  0-non 1-charg 2-wave 3-comb
   ISYM   =      2    0-nonsym 1-usesym 2-fastsym
   LCORR  =      T    Harris-Foulkes like correction to forces

   POTIM  = 0.5000    time-step for ionic-motion
   TEIN   =    0.0    initial temperature
   TEBEG  =    0.0;   TEEND  =   0.0 temperature during run
   SMASS  =  -3.00    Nose mass-parameter (am)
   estimated Nose-frequenzy (Omega)   =  0.10E-29 period in steps =****** mass=  -0.184E-27a.u.
   SCALEE = 1.0000    scale energy and forces
   NPACO  =    256;   APACO  = 16.0  distance and # of slots for P.C.
   PSTRESS=    0.0 pullay stress

  Mass of Ions in am
   POMASS =  55.85
  Ionic Valenz
   ZVAL   =   8.00
  Atomic Wigner-Seitz radii
   RWIGS  =  -1.00
  virtual crystal weights 
   VCA    =   1.00
   NELECT =      16.0000    total number of electrons
   NUPDOWN=      -1.0000    fix difference up-down

 DOS related values:
   EMIN   =  10.00;   EMAX   =-10.00  energy-range for DOS
   EFERMI =   0.00
   ISMEAR =    -5;   SIGMA  =   0.05  broadening in eV -4-tet -1-fermi 0-gaus

 Electronic relaxation 2 (details)
   IALGO  =     68    algorithm
   LDIAG  =      T    sub-space diagonalisation (order eigenvalues)
   LSUBROT=      F    optimize rotation matrix (better conditioning)
   TURBO    =      0    0=normal 1=particle mesh
   IRESTART =      0    0=no restart 2=restart with 2 vectors
   NREBOOT  =      0    no. of reboots
   NMIN     =      0    reboot dimension
   EREF     =   0.00    reference energy to select bands
   IMIX   =      4    mixing-type and parameters
     AMIX     =   0.40;   BMIX     =  1.00
     AMIX_MAG =   1.60;   BMIX_MAG =  1.00
     AMIN     =   0.10
     WC   =   100.;   INIMIX=   1;  MIXPRE=   1;  MAXMIX= -45

 Intra band minimization:
   WEIMIN = 0.0010     energy-eigenvalue tresh-hold
   EBREAK =  0.14E-07  absolut break condition
   DEPER  =   0.30     relativ break condition  

   TIME   =   0.40     timestep for ELM

  volume/ion in A,a.u.               =      11.45        77.29
  Fermi-wavevector in a.u.,A,eV,Ry     =   1.452519  2.744863 28.705733  2.109812
  Thomas-Fermi vector in A             =   2.569892
 
 Write flags
   LWAVE        =      F    write WAVECAR
   LDOWNSAMPLE  =      F    k-point downsampling of WAVECAR
   LCHARG       =      T    write CHGCAR
   LVTOT        =      F    write LOCPOT, total local potential
   LVHAR        =      F    write LOCPOT, Hartree potential only
   LELF         =      F    write electronic localiz. function (ELF)
   LORBIT       =     11    0 simple, 1 ext, 2 COOP (PROOUT), +10 PAW based schemes


 Dipole corrections
   LMONO  =      F    monopole corrections only (constant potential shift)
   LDIPOL =      F    correct potential (dipole corrections)
   IDIPOL =      0    1-x, 2-y, 3-z, 4-all directions 
   EPSILON=  1.0000000 bulk dielectric constant

 Exchange correlation treatment:
   GGA     =    --    GGA type
   LEXCH   =     8    internal setting for exchange type
   VOSKOWN=      0    Vosko Wilk Nusair interpolation
   LHFCALC =     F    Hartree Fock is set to
   LHFONE  =     F    Hartree Fock one center treatment
   AEXX    =    0.0000 exact exchange contribution

 Linear response parameters
   LEPSILON=     F    determine dielectric tensor
   LRPA    =     F    only Hartree local field effects (RPA)
   LNABLA  =     F    use nabla operator in PAW spheres
   LVEL    =     F    velocity operator in full k-point grid
   LINTERFAST=   F  fast interpolation
   KINTER  =     0    interpolate to denser k-point grid
   CSHIFT  =0.1000    complex shift for real part using Kramers Kronig
   OMEGAMAX=  -1.0    maximum frequency
   DEG_THRESHOLD= 0.2000000E-02 threshold for treating states as degnerate
   RTIME   =   -0.100 relaxation time in fs
  (WPLASMAI=    0.000 imaginary part of plasma frequency in eV, 0.658/RTIME)
   DFIELD  = 0.0000000 0.0000000 0.0000000 field for delta impulse in time
 
 Orbital magnetization related:
   ORBITALMAG=     F  switch on orbital magnetization
   LCHIMAG   =     F  perturbation theory with respect to B field
   DQ        =  0.001000  dq finite difference perturbation B field
   LLRAUG    =     F  two centre corrections for induced B field



--------------------------------------------------------------------------------------------------------


 conjugate gradient relaxation of ions
 charge density and potential will be updated during run
 spin polarized calculation
 RMM-DIIS sequential band-by-band and
  variant of blocked Davidson during initial phase
 perform sub-space diagonalisation
    before iterative eigenvector-optimisation
 modified Broyden-mixing scheme, WC =      100.0
 initial mixing is a Kerker type mixing with AMIX =  0.4000 and BMIX =      1.0000
 Hartree-type preconditioning will be used
 using additional bands           10
 reciprocal scheme for non local part
 use partial core corrections
 calculate Harris-corrections to forces 
   (improved forces if not selfconsistent)
 use gradient corrections 
 use of overlap-Matrix (Vanderbilt PP)
 Fermi weights with tetrahedron method with Bloechl corrections


--------------------------------------------------------------------------------------------------------


  energy-cutoff  :      520.00
  volume of cell :       22.91
      direct lattice vectors                 reciprocal lattice vectors
     2.840052000  0.000000000  0.000000000     0.352106229  0.000000000  0.000000000
     0.000000000  2.840052000  0.000000000     0.000000000  0.352106229  0.000000000
     0.000000000  0.000000000  2.840052000     0.000000000  0.000000000  0.352106229

  length of vectors
     2.840052000  2.840052000  2.840052000     0.352106229  0.352106229  0.352106229


 
 k-points in units of 2pi/SCALE and weight: pymatgen v2021.2.8.1 with grid density =
   0.02200664  0.02200664  0.02200664       0.016
   0.06601992  0.02200664  0.02200664       0.047
   0.11003320  0.02200664  0.02200664       0.047
   0.15404648  0.02200664  0.02200664       0.047
   0.06601992  0.06601992  0.02200664       0.047
   0.11003320  0.06601992  0.02200664       0.094
   0.15404648  0.06601992  0.02200664       0.094
   0.11003320  0.11003320  0.02200664       0.047
   0.15404648  0.11003320  0.02200664       0.094
   0.15404648  0.15404648  0.02200664       0.047
   0.06601992  0.06601992  0.06601992       0.016
   0.11003320  0.06601992  0.06601992       0.047
   0.15404648  0.06601992  0.06601992       0.047
   0.11003320  0.11003320  0.06601992       0.047
   0.15404648  0.11003320  0.06601992       0.094
   0.15404648  0.15404648  0.06601992       0.047
   0.11003320  0.11003320  0.11003320       0.016
   0.15404648  0.11003320  0.11003320       0.047
   0.15404648  0.15404648  0.11003320       0.047
   0.15404648  0.15404648  0.15404648       0.016
 
 k-points in reciprocal lattice and weights: pymatgen v2021.2.8.1 with grid density =
   0.06250000  0.06250000  0.06250000       0.016
   0.18750000  0.06250000  0.06250000       0.047
   0.31250000  0.06250000  0.06250000       0.047
   0.43750000  0.06250000  0.06250000       0.047
   0.18750000  0.18750000  0.06250000       0.047
   0.31250000  0.18750000  0.06250000       0.094
   0.43750000  0.18750000  0.06250000       0.094
   0.31250000  0.31250000  0.06250000       0.047
   0.43750000  0.31250000  0.06250000       0.094
   0.43750000  0.43750000  0.06250000       0.047
   0.18750000  0.18750000  0.18750000       0.016
   0.31250000  0.18750000  0.18750000       0.047
   0.43750000  0.18750000  0.18750000       0.047
   0.31250000  0.31250000  0.18750000       0.047
   0.43750000  0.31250000  0.18750000       0.094
   0.43750000  0.43750000  0.18750000       0.047
   0.31250000  0.31250000  0.31250000       0.016
   0.43750000  0.31250000  0.31250000       0.047
   0.43750000  0.43750000  0.31250000       0.047
   0.43750000  0.43750000  0.43750000       0.016
 
 position of ions in fractional coordinates (direct lattice) 
   0.00000000  0.00000000  0.00000000
   0.50000000  0.50000000  0.50000000
 
 position of ions in cartesian coordinates  (Angst):
   0.00000000  0.00000000  0.00000000
   1.42002600  1.42002600  1.42002600
 


--------------------------------------------------------------------------------------------------------


 k-point  1 :   0.0625 0.0625 0.0625  plane waves:     615
 k-point  2 :   0.1875 0.0625 0.0625  plane waves:     624
 k-point  3 :   0.3125 0.0625 0.0625  plane waves:     620
 k-point  4 :   0.4375 0.0625 0.0625  plane waves:     615
 k-point  5 :   0.1875 0.1875 0.0625  plane waves:     622
 k-point  6 :   0.3125 0.1875 0.0625  plane waves:     616
 k-point  7 :   0.4375 0.1875 0.0625  plane waves:     616
 k-point  8 :   0.3125 0.3125 0.0625  plane waves:     613
 k-point  9 :   0.4375 0.3125 0.0625  plane waves:     612
 k-point 10 :   0.4375 0.4375 0.0625  plane waves:     610
 k-point 11 :   0.1875 0.1875 0.1875  plane waves:     615
 k-point 12 :   0.3125 0.1875 0.1875  plane waves:     612
 k-point 13 :   0.4375 0.1875 0.1875  plane waves:     613
 k-point 14 :   0.3125 0.3125 0.1875  plane waves:     613
 k-point 15 :   0.4375 0.3125 0.1875  plane waves:     616
 k-point 16 :   0.4375 0.4375 0.1875  plane waves:     620
 k-point 17 :   0.3125 0.3125 0.3125  plane waves:     624
 k-point 18 :   0.4375 0.3125 0.3125  plane waves:     612
 k-point 19 :   0.4375 0.4375 0.3125  plane waves:     621
 k-point 20 :   0.4375 0.4375 0.4375  plane waves:     630

 maximum and minimum number of plane-waves per node :       166      144

 maximum number of plane-waves:       630
 maximum index in each direction: 
   IXMAX=    5   IYMAX=    5   IZMAX=    5
   IXMIN=   -5   IYMIN=   -5   IZMIN=   -5


 parallel 3D FFT for wavefunctions:
    minimum data exchange during FFTs selected (reduces bandwidth)
 parallel 3D FFT for charge:
    minimum data exchange during FFTs selected (reduces bandwidth)


 total amount of memory used by VASP MPI-rank0    33389. kBytes
=======================================================================

   base      :      30000. kBytes
   nonl-proj :        460. kBytes
   fftplans  :        577. kBytes
   grid      :       1308. kBytes
   one-center:         31. kBytes
   wavefun   :       1013. kBytes
 
     INWAV:  cpu time    0.0000: real time    0.0001
 Broyden mixing: mesh for mixing (old mesh)
   NGX = 11   NGY = 11   NGZ = 11
  (NGX  = 48   NGY  = 48   NGZ  = 48)
  gives a total of   1331 points

 initial charge density was supplied:
 charge density of overlapping atoms calculated
 number of electron      16.0000000 magnetization      10.0000000
 keeping initial charge density in first step


--------------------------------------------------------------------------------------------------------


 Maximum index for augmentation-charges         2569 (set IRDMAX)


--------------------------------------------------------------------------------------------------------


 First call to EWALD:  gamma=   0.624
 Maximum number of real-space cells 3x 3x 3
 Maximum number of reciprocal cells 3x 3x 3

    FEWALD:  cpu time    0.0013: real time    0.0013


--------------------------------------- Iteration      1(   1)  ---------------------------------------


    POTLOK:  cpu time    0.0216: real time    0.0217
    SETDIJ:  cpu time    0.5381: real time    0.5945
     EDDAV:  cpu time    0.2249: real time    0.2430
 BZINTS: Fermi energy: 17.103824; 16.000000 electrons
         Band energy: 180.214595;  BLOECHL correction: -0.287591
       DOS:  cpu time    0.0137: real time    0.0137
    --------------------------------------------
      LOOP:  cpu time    0.7983: real time    0.8730

 eigenvalue-minimisations  :  1520
 total energy-change (2. order) : 0.8308094E+02  (-0.8217786E+03)
 number of electron      16.0000000 magnetization      10.0000000
 augmentation part       16.0000000 magnetization      10.0000000

 Free energy of the ion-electron system (eV)
  ---------------------------------------------------
  alpha Z        PSCENC =       120.68289978
  Ewald energy   TEWEN  =     -1180.91781230
  -Hartree energ DENC   =      -224.32563672
  -exchange      EXHF   =         0.00000000
  -V(xc)+E(xc)   XCENC  =        14.42223844
  PAW double counting   =      1103.49540010    -1119.11610375
  entropy T*S    EENTRO =         0.00000000
  eigenvalues    EBANDS =       180.21459476
  atomic energy  EATOM  =      1188.62536141
  Solvation  Ediel_sol  =         0.00000000
  ---------------------------------------------------
  free energy    TOTEN  =        83.08094172 eV

  energy without entropy =       83.08094172  energy(sigma->0) =       83.08094172


--------------------------------------------------------------------------------------------------------




--------------------------------------- Iteration      1(   2)  ---------------------------------------


     EDDAV:  cpu time    0.2102: real time    0.2122
 BZINTS: Fermi energy:  8.382513; 16.000000 electrons
         Band energy:  84.250967;  BLOECHL correction: -0.085870
       DOS:  cpu time    0.0136: real time    0.0137
    --------------------------------------------
      LOOP:  cpu time    0.2238: real time    0.2259

 eigenvalue-minimisations  :  1446
 total energy-change (2. order) :-0.9596363E+02  (-0.8745949E+02)
 number of electron      16.0000000 magnetization      10.0000000
 augmentation part       16.0000000 magnetization      10.0000000

 Free energy of the ion-electron system (eV)
  ---------------------------------------------------
  alpha Z        PSCENC =       120.68289978
  Ewald energy   TEWEN  =     -1180.91781230
  -Hartree energ DENC   =      -224.32563672
  -exchange      EXHF   =         0.00000000
  -V(xc)+E(xc)   XCENC  =        14.42223844
  PAW double counting   =      1103.49540010    -1119.11610375
  entropy T*S    EENTRO =         0.00000000
  eigenvalues    EBANDS =        84.25096666
  atomic energy  EATOM  =      1188.62536141
  Solvation  Ediel_sol  =         0.00000000
  ---------------------------------------------------
  free energy    TOTEN  =       -12.88268638 eV

  energy without entropy =      -12.88268638  energy(sigma->0) =      -12.88268638


--------------------------------------------------------------------------------------------------------




--------------------------------------- Iteration      1(   3)  ---------------------------------------


     EDDAV:  cpu time    0.2226: real time    0.2232
 BZINTS: Fermi energy:  8.110633; 16.000000 electrons
         Band energy:  81.169135;  BLOECHL correction: -0.077498
       DOS:  cpu time    0.0131: real time    0.0131
    --------------------------------------------
      LOOP:  cpu time    0.2356: real time    0.2363

 eigenvalue-minimisations  :  1576
 total energy-change (2. order) :-0.3081831E+01  (-0.3005118E+01)
 number of electron      16.0000000 magnetization      10.0000000
 augmentation part       16.0000000 magnetization      10.0000000

 Free energy of the ion-electron system (eV)
  ---------------------------------------------------
  alpha Z        PSCENC =       120.68289978
  Ewald energy   TEWEN  =     -1180.91781230
  -Hartree energ DENC   =      -224.32563672
  -exchange      EXHF   =         0.00000000
  -V(xc)+E(xc)   XCENC  =        14.42223844
  PAW double counting   =      1103.49540010    -1119.11610375
  entropy T*S    EENTRO =         0.00000000
  eigenvalues    EBANDS =        81.16913519
  atomic energy  EATOM  =      1188.62536141
  Solvation  Ediel_sol  =         0.00000000
  ---------------------------------------------------
  free energy    TOTEN  =       -15.96451785 eV

  energy without entropy =      -15.96451785  energy(sigma->0) =      -15.96451785


--------------------------------------------------------------------------------------------------------




--------------------------------------- Iteration      1(   4)  ---------------------------------------


     EDDAV:  cpu time    0.2276: real time    0.2282
 BZINTS: Fermi energy:  8.108746; 16.000000 electrons
         Band energy:  81.144299;  BLOECHL correction: -0.077493
       DOS:  cpu time    0.0135: real time    0.0135
    --------------------------------------------
      LOOP:  cpu time    0.2411: real time    0.2418

 eigenvalue-minimisations  :  1576
 total energy-change (2. order) :-0.2483581E-01  (-0.2484980E-01)
 number of electron      16.0000000 magnetization      10.0000000
 augmentation part       16.0000000 magnetization      10.0000000

 Free energy of the ion-electron system (eV)
  ---------------------------------------------------
  alpha Z        PSCENC =       120.68289978
  Ewald energy   TEWEN  =     -1180.91781230
  -Hartree energ DENC   =      -224.32563672
  -exchange      EXHF   =         0.00000000
  -V(xc)+E(xc)   XCENC  =        14.42223844
  PAW double counting   =      1103.49540010    -1119.11610375
  entropy T*S    EENTRO =         0.00000000
  eigenvalues    EBANDS =        81.14429938
  atomic energy  EATOM  =      1188.62536141
  Solvation  Ediel_sol  =         0.00000000
  ---------------------------------------------------
  free energy    TOTEN  =       -15.98935366 eV

  energy without entropy =      -15.98935366  energy(sigma->0) =      -15.98935366


--------------------------------------------------------------------------------------------------------




--------------------------------------- Iteration      1(   5)  ---------------------------------------


     EDDAV:  cpu time    0.2170: real time    0.2177
 BZINTS: Fermi energy:  8.108725; 16.000000 electrons
         Band energy:  81.144026;  BLOECHL correction: -0.077492
       DOS:  cpu time    0.0134: real time    0.0135
    CHARGE:  cpu time    0.0166: real time    0.0166
    MIXING:  cpu time    0.0005: real time    0.0006
    --------------------------------------------
      LOOP:  cpu time    0.2475: real time    0.2483

 eigenvalue-minimisations  :  1548
 total energy-change (2. order) :-0.2737764E-03  (-0.2743506E-03)
 number of electron      16.0000010 magnetization       4.0975311
 augmentation part        7.3754028 magnetization       2.5121359

 Broyden mixing:
  rms(total) = 0.20428E+01    rms(broyden)= 0.20428E+01
  rms(prec ) = 0.35986E+01
  weight for this iteration     100.00

 Free energy of the ion-electron system (eV)
  ---------------------------------------------------
  alpha Z        PSCENC =       120.68289978
  Ewald energy   TEWEN  =     -1180.91781230
  -Hartree energ DENC   =      -224.32563672
  -exchange      EXHF   =         0.00000000
  -V(xc)+E(xc)   XCENC  =        14.42223844
  PAW double counting   =      1103.49540010    -1119.11610375
  entropy T*S    EENTRO =         0.00000000
  eigenvalues    EBANDS =        81.14402560
  atomic energy  EATOM  =      1188.62536141
  Solvation  Ediel_sol  =         0.00000000
  ---------------------------------------------------
  free energy    TOTEN  =       -15.98962744 eV

  energy without entropy =      -15.98962744  energy(sigma->0) =      -15.98962744


--------------------------------------------------------------------------------------------------------




--------------------------------------- Iteration      1(   6)  ---------------------------------------


    POTLOK:  cpu time    0.0156: real time    0.0157
    SETDIJ:  cpu time    0.5655: real time    0.5670
    EDDIAG:  cpu time    0.0567: real time    0.0568
  RMM-DIIS:  cpu time    0.1156: real time    0.1160
    ORTHCH:  cpu time    0.0068: real time    0.0068
 BZINTS: Fermi energy:  5.425001; 16.000000 electrons
         Band energy:  52.647453;  BLOECHL correction: -0.052800
       DOS:  cpu time    0.0136: real time    0.0136
    CHARGE:  cpu time    0.0159: real time    0.0160
    MIXING:  cpu time    0.0006: real time    0.0006
    --------------------------------------------
      LOOP:  cpu time    0.7903: real time    0.7924

 eigenvalue-minimisations  :  1440
 total energy-change (2. order) :-0.5790408E+00  (-0.6172849E+00)
 number of electron      16.0000011 magnetization       4.4832478
 augmentation part        8.4778909 magnetization       3.7021173

 Broyden mixing:
  rms(total) = 0.61453E+00    rms(broyden)= 0.61450E+00
  rms(prec ) = 0.68369E+00
  weight for this iteration     100.00

 eigenvalues of (default mixing * dielectric matrix)
  average eigenvalue GAMMA=   0.8675
  0.8675

 Free energy of the ion-electron system (eV)
  ---------------------------------------------------
  alpha Z        PSCENC =       120.68289978
  Ewald energy   TEWEN  =     -1180.91781230
  -Hartree energ DENC   =      -193.52592260
  -exchange      EXHF   =         0.00000000
  -V(xc)+E(xc)   XCENC  =         8.17457830
  PAW double counting   =      1225.75834919    -1238.01357476
  entropy T*S    EENTRO =         0.00000000
  eigenvalues    EBANDS =        52.64745276
  atomic energy  EATOM  =      1188.62536141
  Solvation  Ediel_sol  =         0.00000000
  ---------------------------------------------------
  free energy    TOTEN  =       -16.56866823 eV

  energy without entropy =      -16.56866823  energy(sigma->0) =      -16.56866823


--------------------------------------------------------------------------------------------------------




--------------------------------------- Iteration      1(   7)  ---------------------------------------


    POTLOK:  cpu time    0.0158: real time    0.0159
    SETDIJ:  cpu time    0.5644: real time    0.5658
    EDDIAG:  cpu time    0.0574: real time    0.0576
  RMM-DIIS:  cpu time    0.1162: real time    0.1165
    ORTHCH:  cpu time    0.0067: real time    0.0067
 BZINTS: Fermi energy:  5.826028; 16.000000 electrons
         Band energy:  57.443547;  BLOECHL correction: -0.045371
       DOS:  cpu time    0.0143: real time    0.0143
    CHARGE:  cpu time    0.0161: real time    0.0161
    MIXING:  cpu time    0.0007: real time    0.0007
    --------------------------------------------
      LOOP:  cpu time    0.7916: real time    0.7936

 eigenvalue-minimisations  :  1440
 total energy-change (2. order) : 0.5179699E-01  (-0.1746999E-01)
 number of electron      16.0000010 magnetization       4.3589688
 augmentation part        8.2134211 magnetization       3.6189398

 Broyden mixing:
  rms(total) = 0.44093E+00    rms(broyden)= 0.44093E+00
  rms(prec ) = 0.56500E+00
  weight for this iteration     100.00

 eigenvalues of (default mixing * dielectric matrix)
  average eigenvalue GAMMA=   0.7691
  1.0168  0.5215

 Free energy of the ion-electron system (eV)
  ---------------------------------------------------
  alpha Z        PSCENC =       120.68289978
  Ewald energy   TEWEN  =     -1180.91781230
  -Hartree energ DENC   =      -195.92988362
  -exchange      EXHF   =         0.00000000
  -V(xc)+E(xc)   XCENC  =         8.86554960
  PAW double counting   =      1305.22018932    -1320.50672250
  entropy T*S    EENTRO =         0.00000000
  eigenvalues    EBANDS =        57.44354708
  atomic energy  EATOM  =      1188.62536141
  Solvation  Ediel_sol  =         0.00000000
  ---------------------------------------------------
  free energy    TOTEN  =       -16.51687123 eV

  energy without entropy =      -16.51687123  energy(sigma->0) =      -16.51687123


--------------------------------------------------------------------------------------------------------




--------------------------------------- Iteration      1(   8)  ---------------------------------------


    POTLOK:  cpu time    0.0167: real time    0.0169
    SETDIJ:  cpu time    0.5680: real time    0.5694
    EDDIAG:  cpu time    0.0556: real time    0.0558
  RMM-DIIS:  cpu time    0.1158: real time    0.1161
    ORTHCH:  cpu time    0.0065: real time    0.0066
 BZINTS: Fermi energy:  5.737993; 16.000000 electrons
         Band energy:  56.298835;  BLOECHL correction: -0.047928
       DOS:  cpu time    0.0140: real time    0.0140
    CHARGE:  cpu time    0.0163: real time    0.0164
    MIXING:  cpu time    0.0006: real time    0.0006
    --------------------------------------------
      LOOP:  cpu time    0.7937: real time    0.7958

 eigenvalue-minimisations  :  1440
 total energy-change (2. order) : 0.2074396E-01  (-0.9575860E-03)
 number of electron      16.0000010 magnetization       4.2871326
 augmentation part        8.2673368 magnetization       3.5448700

 Broyden mixing:
  rms(total) = 0.14998E+00    rms(broyden)= 0.14998E+00
  rms(prec ) = 0.22448E+00
  weight for this iteration     100.00

 eigenvalues of (default mixing * dielectric matrix)
  average eigenvalue GAMMA=   1.0984
  1.8576  0.8725  0.5650

 Free energy of the ion-electron system (eV)
  ---------------------------------------------------
  alpha Z        PSCENC =       120.68289978
  Ewald energy   TEWEN  =     -1180.91781230
  -Hartree energ DENC   =      -193.71601713
  -exchange      EXHF   =         0.00000000
  -V(xc)+E(xc)   XCENC  =         8.62472515
  PAW double counting   =      1345.62672542    -1361.72084446
  entropy T*S    EENTRO =         0.00000000
  eigenvalues    EBANDS =        56.29883486
  atomic energy  EATOM  =      1188.62536141
  Solvation  Ediel_sol  =         0.00000000
  ---------------------------------------------------
  free energy    TOTEN  =       -16.49612727 eV

  energy without entropy =      -16.49612727  energy(sigma->0) =      -16.49612727


--------------------------------------------------------------------------------------------------------




--------------------------------------- Iteration      1(   9)  ---------------------------------------


    POTLOK:  cpu time    0.0172: real time    0.0173
    SETDIJ:  cpu time    0.5771: real time    0.5785
    EDDIAG:  cpu time    0.0546: real time    0.0547
  RMM-DIIS:  cpu time    0.1136: real time    0.1139
    ORTHCH:  cpu time    0.0062: real time    0.0062
 BZINTS: Fermi energy:  5.666966; 16.000000 electrons
         Band energy:  55.363980;  BLOECHL correction: -0.050917
       DOS:  cpu time    0.0134: real time    0.0134
    CHARGE:  cpu time    0.0154: real time    0.0154
    MIXING:  cpu time    0.0005: real time    0.0005
    --------------------------------------------
      LOOP:  cpu time    0.7979: real time    0.8000

 eigenvalue-minimisations  :  1440
 total energy-change (2. order) : 0.9057416E-02  (-0.3360075E-03)
 number of electron      16.0000010 magnetization       4.3252974
 augmentation part        8.3117500 magnetization       3.5779367

 Broyden mixing:
  rms(total) = 0.42468E-01    rms(broyden)= 0.42467E-01
  rms(prec ) = 0.54626E-01
  weight for this iteration     100.00

 eigenvalues of (default mixing * dielectric matrix)
  average eigenvalue GAMMA=   1.1726
  2.3118  1.0369  0.7101  0.6316

 Free energy of the ion-electron system (eV)
  ---------------------------------------------------
  alpha Z        PSCENC =       120.68289978
  Ewald energy   TEWEN  =     -1180.91781230
  -Hartree energ DENC   =      -191.19183063
  -exchange      EXHF   =         0.00000000
  -V(xc)+E(xc)   XCENC  =         8.47254496
  PAW double counting   =      1408.53010088    -1426.05231431
  entropy T*S    EENTRO =         0.00000000
  eigenvalues    EBANDS =        55.36398036
  atomic energy  EATOM  =      1188.62536141
  Solvation  Ediel_sol  =         0.00000000
  ---------------------------------------------------
  free energy    TOTEN  =       -16.48706986 eV

  energy without entropy =      -16.48706986  energy(sigma->0) =      -16.48706986


--------------------------------------------------------------------------------------------------------




--------------------------------------- Iteration      1(  10)  ---------------------------------------


    POTLOK:  cpu time    0.0154: real time    0.0155
    SETDIJ:  cpu time    0.5855: real time    0.5870
    EDDIAG:  cpu time    0.0543: real time    0.0544
  RMM-DIIS:  cpu time    0.1123: real time    0.1126
    ORTHCH:  cpu time    0.0065: real time    0.0065
 BZINTS: Fermi energy:  5.699234; 16.000000 electrons
         Band energy:  55.769265;  BLOECHL correction: -0.050965
       DOS:  cpu time    0.0129: real time    0.0129
    CHARGE:  cpu time    0.0152: real time    0.0152
    MIXING:  cpu time    0.0006: real time    0.0006
    --------------------------------------------
      LOOP:  cpu time    0.8027: real time    0.8048

 eigenvalue-minimisations  :  1440
 total energy-change (2. order) : 0.8679101E-03  (-0.1890062E-03)
 number of electron      16.0000010 magnetization       4.3349692
 augmentation part        8.2938770 magnetization       3.5838867

 Broyden mixing:
  rms(total) = 0.60461E-02    rms(broyden)= 0.60459E-02
  rms(prec ) = 0.95876E-02
  weight for this iteration     100.00

 eigenvalues of (default mixing * dielectric matrix)
  average eigenvalue GAMMA=   1.1149
  2.3701  1.0734  0.6237  0.7536  0.7536

 Free energy of the ion-electron system (eV)
  ---------------------------------------------------
  alpha Z        PSCENC =       120.68289978
  Ewald energy   TEWEN  =     -1180.91781230
  -Hartree energ DENC   =      -191.11422733
  -exchange      EXHF   =         0.00000000
  -V(xc)+E(xc)   XCENC  =         8.50825829
  PAW double counting   =      1426.79684761    -1444.83679489
  entropy T*S    EENTRO =         0.00000000
  eigenvalues    EBANDS =        55.76926548
  atomic energy  EATOM  =      1188.62536141
  Solvation  Ediel_sol  =         0.00000000
  ---------------------------------------------------
  free energy    TOTEN  =       -16.48620195 eV

  energy without entropy =      -16.48620195  energy(sigma->0) =      -16.48620195


--------------------------------------------------------------------------------------------------------




--------------------------------------- Iteration      1(  11)  ---------------------------------------


    POTLOK:  cpu time    0.0159: real time    0.0160
    SETDIJ:  cpu time    0.5882: real time    0.5896
    EDDIAG:  cpu time    0.0569: real time    0.0570
  RMM-DIIS:  cpu time    0.1140: real time    0.1143
    ORTHCH:  cpu time    0.0063: real time    0.0063
 BZINTS: Fermi energy:  5.697801; 16.000000 electrons
         Band energy:  55.752417;  BLOECHL correction: -0.051015
       DOS:  cpu time    0.0127: real time    0.0127
    CHARGE:  cpu time    0.0148: real time    0.0149
    MIXING:  cpu time    0.0006: real time    0.0006
    --------------------------------------------
      LOOP:  cpu time    0.8094: real time    0.8114

 eigenvalue-minimisations  :  1440
 total energy-change (2. order) :-0.9568532E-04  (-0.8058829E-05)
 number of electron      16.0000010 magnetization       4.3314266
 augmentation part        8.2950048 magnetization       3.5803349

 Broyden mixing:
  rms(total) = 0.58433E-02    rms(broyden)= 0.58432E-02
  rms(prec ) = 0.65284E-02
  weight for this iteration     100.00

 eigenvalues of (default mixing * dielectric matrix)
  average eigenvalue GAMMA=   1.1894
  2.3769  1.6813  1.0310  0.6187  0.7143  0.7143

 Free energy of the ion-electron system (eV)
  ---------------------------------------------------
  alpha Z        PSCENC =       120.68289978
  Ewald energy   TEWEN  =     -1180.91781230
  -Hartree energ DENC   =      -191.06446488
  -exchange      EXHF   =         0.00000000
  -V(xc)+E(xc)   XCENC  =         8.51932645
  PAW double counting   =      1429.62510662    -1447.70913218
  entropy T*S    EENTRO =         0.00000000
  eigenvalues    EBANDS =        55.75241747
  atomic energy  EATOM  =      1188.62536141
  Solvation  Ediel_sol  =         0.00000000
  ---------------------------------------------------
  free energy    TOTEN  =       -16.48629763 eV

  energy without entropy =      -16.48629763  energy(sigma->0) =      -16.48629763


--------------------------------------------------------------------------------------------------------




--------------------------------------- Iteration      1(  12)  ---------------------------------------


    POTLOK:  cpu time    0.0145: real time    0.0146
    SETDIJ:  cpu time    0.5704: real time    0.5718
    EDDIAG:  cpu time    0.0545: real time    0.0547
  RMM-DIIS:  cpu time    0.1014: real time    0.1016
    ORTHCH:  cpu time    0.0061: real time    0.0061
 BZINTS: Fermi energy:  5.697344; 16.000000 electrons
         Band energy:  55.746244;  BLOECHL correction: -0.051046
       DOS:  cpu time    0.0131: real time    0.0132
    CHARGE:  cpu time    0.0160: real time    0.0160
    MIXING:  cpu time    0.0007: real time    0.0007
    --------------------------------------------
      LOOP:  cpu time    0.7767: real time    0.7787

 eigenvalue-minimisations  :  1269
 total energy-change (2. order) :-0.2037200E-04  (-0.6737136E-06)
 number of electron      16.0000010 magnetization       4.3300801
 augmentation part        8.2950906 magnetization       3.5791813

 Broyden mixing:
  rms(total) = 0.17646E-02    rms(broyden)= 0.17646E-02
  rms(prec ) = 0.23352E-02
  weight for this iteration     100.00

 eigenvalues of (default mixing * dielectric matrix)
  average eigenvalue GAMMA=   1.2740
  2.7258  2.3843  1.0562  0.7675  0.7458  0.6193  0.6193

 Free energy of the ion-electron system (eV)
  ---------------------------------------------------
  alpha Z        PSCENC =       120.68289978
  Ewald energy   TEWEN  =     -1180.91781230
  -Hartree energ DENC   =      -191.08112321
  -exchange      EXHF   =         0.00000000
  -V(xc)+E(xc)   XCENC  =         8.51686430
  PAW double counting   =      1430.17960116    -1448.23835306
  entropy T*S    EENTRO =         0.00000000
  eigenvalues    EBANDS =        55.74624392
  atomic energy  EATOM  =      1188.62536141
  Solvation  Ediel_sol  =         0.00000000
  ---------------------------------------------------
  free energy    TOTEN  =       -16.48631800 eV

  energy without entropy =      -16.48631800  energy(sigma->0) =      -16.48631800


--------------------------------------------------------------------------------------------------------




--------------------------------------- Iteration      1(  13)  ---------------------------------------


    POTLOK:  cpu time    0.0163: real time    0.0165
    SETDIJ:  cpu time    0.5655: real time    0.5668
    EDDIAG:  cpu time    0.0549: real time    0.0550
  RMM-DIIS:  cpu time    0.0866: real time    0.0869
    ORTHCH:  cpu time    0.0064: real time    0.0064
 BZINTS: Fermi energy:  5.696174; 16.000000 electrons
         Band energy:  55.731180;  BLOECHL correction: -0.051048
       DOS:  cpu time    0.0124: real time    0.0124
    CHARGE:  cpu time    0.0147: real time    0.0148
    MIXING:  cpu time    0.0006: real time    0.0006
    --------------------------------------------
      LOOP:  cpu time    0.7574: real time    0.7595

 eigenvalue-minimisations  :  1055
 total energy-change (2. order) :-0.1183829E-05  (-0.2044182E-06)
 number of electron      16.0000010 magnetization       4.3296709
 augmentation part        8.2958112 magnetization       3.5788458

 Broyden mixing:
  rms(total) = 0.46757E-03    rms(broyden)= 0.46757E-03
  rms(prec ) = 0.53247E-03
  weight for this iteration     100.00

 eigenvalues of (default mixing * dielectric matrix)
  average eigenvalue GAMMA=   1.2414
  2.7503  2.3835  1.1281  1.0382  0.7571  0.6855  0.6320  0.5566

 Free energy of the ion-electron system (eV)
  ---------------------------------------------------
  alpha Z        PSCENC =       120.68289978
  Ewald energy   TEWEN  =     -1180.91781230
  -Hartree energ DENC   =      -191.07685688
  -exchange      EXHF   =         0.00000000
  -V(xc)+E(xc)   XCENC  =         8.51623881
  PAW double counting   =      1430.40249234    -1448.44982205
  entropy T*S    EENTRO =         0.00000000
  eigenvalues    EBANDS =        55.73117970
  atomic energy  EATOM  =      1188.62536141
  Solvation  Ediel_sol  =         0.00000000
  ---------------------------------------------------
  free energy    TOTEN  =       -16.48631919 eV

  energy without entropy =      -16.48631919  energy(sigma->0) =      -16.48631919


--------------------------------------------------------------------------------------------------------




--------------------------------------- Iteration      1(  14)  ---------------------------------------


    POTLOK:  cpu time    0.0145: real time    0.0146
    SETDIJ:  cpu time    0.5357: real time    0.5370
    EDDIAG:  cpu time    0.0551: real time    0.0552
  RMM-DIIS:  cpu time    0.0779: real time    0.0781
    ORTHCH:  cpu time    0.0064: real time    0.0064
 BZINTS: Fermi energy:  5.696094; 16.000000 electrons
         Band energy:  55.729831;  BLOECHL correction: -0.051044
       DOS:  cpu time    0.0135: real time    0.0136
    CHARGE:  cpu time    0.0159: real time    0.0159
    MIXING:  cpu time    0.0007: real time    0.0007
    --------------------------------------------
      LOOP:  cpu time    0.7197: real time    0.7215

 eigenvalue-minimisations  :   892
 total energy-change (2. order) : 0.4148133E-05  (-0.1632604E-07)
 number of electron      16.0000010 magnetization       4.3293213
 augmentation part        8.2958332 magnetization       3.5784842

 Broyden mixing:
  rms(total) = 0.18644E-03    rms(broyden)= 0.18643E-03
  rms(prec ) = 0.30933E-03
  weight for this iteration     100.00

 eigenvalues of (default mixing * dielectric matrix)
  average eigenvalue GAMMA=   1.2380
  2.7583  2.4195  1.4067  1.0406  0.8873  0.7434  0.6750  0.6116  0.5997

 Free energy of the ion-electron system (eV)
  ---------------------------------------------------
  alpha Z        PSCENC =       120.68289978
  Ewald energy   TEWEN  =     -1180.91781230
  -Hartree energ DENC   =      -191.07758189
  -exchange      EXHF   =         0.00000000
  -V(xc)+E(xc)   XCENC  =         8.51564913
  PAW double counting   =      1430.37423202    -1448.41889443
  entropy T*S    EENTRO =         0.00000000
  eigenvalues    EBANDS =        55.72983125
  atomic energy  EATOM  =      1188.62536141
  Solvation  Ediel_sol  =         0.00000000
  ---------------------------------------------------
  free energy    TOTEN  =       -16.48631504 eV

  energy without entropy =      -16.48631504  energy(sigma->0) =      -16.48631504


--------------------------------------------------------------------------------------------------------




--------------------------------------- Iteration      1(  15)  ---------------------------------------


    POTLOK:  cpu time    0.0161: real time    0.0162
    SETDIJ:  cpu time    0.5723: real time    0.5737
    EDDIAG:  cpu time    0.0554: real time    0.0555
  RMM-DIIS:  cpu time    0.0765: real time    0.0766
    ORTHCH:  cpu time    0.0057: real time    0.0057
 BZINTS: Fermi energy:  5.696139; 16.000000 electrons
         Band energy:  55.730249;  BLOECHL correction: -0.051043
       DOS:  cpu time    0.0133: real time    0.0133
    CHARGE:  cpu time    0.0151: real time    0.0152
    MIXING:  cpu time    0.0007: real time    0.0007
    --------------------------------------------
      LOOP:  cpu time    0.7551: real time    0.7571

 eigenvalue-minimisations  :   884
 total energy-change (2. order) : 0.1025256E-05  (-0.4527613E-08)
 number of electron      16.0000010 magnetization       4.3294190
 augmentation part        8.2958005 magnetization       3.5785903

 Broyden mixing:
  rms(total) = 0.12548E-03    rms(broyden)= 0.12548E-03
  rms(prec ) = 0.14295E-03
  weight for this iteration     100.00

 eigenvalues of (default mixing * dielectric matrix)
  average eigenvalue GAMMA=   1.2286
  2.7801  2.4130  1.5549  1.1300  1.0611  0.7923  0.6811  0.6811  0.5961  0.5961

 Free energy of the ion-electron system (eV)
  ---------------------------------------------------
  alpha Z        PSCENC =       120.68289978
  Ewald energy   TEWEN  =     -1180.91781230
  -Hartree energ DENC   =      -191.08033664
  -exchange      EXHF   =         0.00000000
  -V(xc)+E(xc)   XCENC  =         8.51528167
  PAW double counting   =      1430.35870447    -1448.40066189
  entropy T*S    EENTRO =         0.00000000
  eigenvalues    EBANDS =        55.73024949
  atomic energy  EATOM  =      1188.62536141
  Solvation  Ediel_sol  =         0.00000000
  ---------------------------------------------------
  free energy    TOTEN  =       -16.48631401 eV

  energy without entropy =      -16.48631401  energy(sigma->0) =      -16.48631401


--------------------------------------------------------------------------------------------------------




--------------------------------------- Iteration      1(  16)  ---------------------------------------


    POTLOK:  cpu time    0.0153: real time    0.0154
    SETDIJ:  cpu time    0.5738: real time    0.5752
    EDDIAG:  cpu time    0.0572: real time    0.0573
  RMM-DIIS:  cpu time    0.0657: real time    0.0659
    ORTHCH:  cpu time    0.0068: real time    0.0068
 BZINTS: Fermi energy:  5.696184; 16.000000 electrons
         Band energy:  55.730826;  BLOECHL correction: -0.051042
       DOS:  cpu time    0.0138: real time    0.0139
    CHARGE:  cpu time    0.0162: real time    0.0163
    MIXING:  cpu time    0.0009: real time    0.0009
    --------------------------------------------
      LOOP:  cpu time    0.7498: real time    0.7517

 eigenvalue-minimisations  :   471
 total energy-change (2. order) : 0.1290885E-05  (-0.3872987E-09)
 number of electron      16.0000010 magnetization       4.3294421
 augmentation part        8.2957766 magnetization       3.5786171

 Broyden mixing:
  rms(total) = 0.33477E-04    rms(broyden)= 0.33476E-04
  rms(prec ) = 0.34426E-04
  weight for this iteration     100.00

 eigenvalues of (default mixing * dielectric matrix)
  average eigenvalue GAMMA=   1.2795
  2.8315  2.4464  2.4464  1.2134  1.0405  0.8398  0.5837  0.6826  0.6826  0.6213
  0.6863

 Free energy of the ion-electron system (eV)
  ---------------------------------------------------
  alpha Z        PSCENC =       120.68289978
  Ewald energy   TEWEN  =     -1180.91781230
  -Hartree energ DENC   =      -191.08086895
  -exchange      EXHF   =         0.00000000
  -V(xc)+E(xc)   XCENC  =         8.51544521
  PAW double counting   =      1430.36972134    -1448.41188516
  entropy T*S    EENTRO =         0.00000000
  eigenvalues    EBANDS =        55.73082595
  atomic energy  EATOM  =      1188.62536141
  Solvation  Ediel_sol  =         0.00000000
  ---------------------------------------------------
  free energy    TOTEN  =       -16.48631272 eV

  energy without entropy =      -16.48631272  energy(sigma->0) =      -16.48631272


--------------------------------------------------------------------------------------------------------




--------------------------------------- Iteration      1(  17)  ---------------------------------------


    POTLOK:  cpu time    0.0166: real time    0.0168
    SETDIJ:  cpu time    0.5528: real time    0.5541
    EDDIAG:  cpu time    0.0580: real time    0.0581
  RMM-DIIS:  cpu time    0.0731: real time    0.0733
    ORTHCH:  cpu time    0.0066: real time    0.0066
 BZINTS: Fermi energy:  5.696191; 16.000000 electrons
         Band energy:  55.730900;  BLOECHL correction: -0.051042
       DOS:  cpu time    0.0140: real time    0.0140
    --------------------------------------------
      LOOP:  cpu time    0.7211: real time    0.7229

 eigenvalue-minimisations  :   352
 total energy-change (2. order) : 0.2301826E-06  (-0.3045722E-10)
 number of electron      16.0000010 magnetization       4.3294421
 augmentation part        8.2957766 magnetization       3.5786171

 Free energy of the ion-electron system (eV)
  ---------------------------------------------------
  alpha Z        PSCENC =       120.68289978
  Ewald energy   TEWEN  =     -1180.91781230
  -Hartree energ DENC   =      -191.08097574
  -exchange      EXHF   =         0.00000000
  -V(xc)+E(xc)   XCENC  =         8.51547319
  PAW double counting   =      1430.36981975    -1448.41197822
  entropy T*S    EENTRO =         0.00000000
  eigenvalues    EBANDS =        55.73089964
  atomic energy  EATOM  =      1188.62536141
  Solvation  Ediel_sol  =         0.00000000
  ---------------------------------------------------
  free energy    TOTEN  =       -16.48631249 eV

  energy without entropy =      -16.48631249  energy(sigma->0) =      -16.48631249


--------------------------------------------------------------------------------------------------------




 average (electrostatic) potential at core
  the test charge radii are     1.0103
  (the norm of the test charge is              1.0000)
       1 -43.4324       2 -43.4324
 
 
 
 E-fermi :   5.6962     XC(G=0): -13.0738     alpha+bet :-13.5331


 spin component 1

 k-point     1 :       0.0625    0.0625    0.0625
  band No.  band energies     occupation 
      1      -2.3954      1.00000
      2       1.0337      1.00000
      3       1.0337      1.00000
      4       3.3991      1.00000
      5       3.3991      1.00000
      6       3.5968      1.00000
      7       4.5983      1.00000
      8       4.5983      1.00000
      9       5.4823      1.00000
     10       5.7748      0.63746
     11       5.7748      0.01299
     12      15.1863      0.00000
     13      15.1863      0.00000
     14      15.5714      0.00000
     15      22.0634      0.00000
     16      22.0634      0.00000
     17      27.0556      0.00000
     18      29.5324      0.00000

 k-point     2 :       0.1875    0.0625    0.0625
  band No.  band energies     occupation 
      1      -1.7762      1.00000
      2       1.2873      1.00000
      3       1.2886      1.00000
      4       3.3153      1.00000
      5       3.3762      1.00000
      6       3.8572      1.00000
      7       4.3624      1.00000
      8       4.7147      1.00000
      9       4.9246      1.00000
     10       5.3172      1.02192
     11       5.7410      0.18445
     12      12.3246      0.00000
     13      16.2370      0.00000
     14      16.5161      0.00000
     15      22.3498      0.00000
     16      23.8110      0.00000
     17      26.8834      0.00000
     18      28.3358      0.00000

 k-point     3 :       0.3125    0.0625    0.0625
  band No.  band energies     occupation 
      1      -0.6509      1.00000
      2       1.5915      1.00000
      3       1.7617      1.00000
      4       3.3247      1.00000
      5       3.3458      1.00000
      6       3.9848      1.00000
      7       4.2223      1.00000
      8       4.3049      1.00000
      9       4.6947      1.00000
     10       4.9363      1.00000
     11       5.4736      1.08400
     12       9.2482      0.00000
     13      17.9853      0.00000
     14      18.2764      0.00000
     15      22.9991      0.00000
     16      24.3914      0.00000
     17      24.8032      0.00000
     18      25.7575      0.00000

 k-point     4 :       0.4375    0.0625    0.0625
  band No.  band energies     occupation 
      1       0.6558      1.00000
      2       1.5125      1.00000
      3       2.3764      1.00000
      4       2.9958      1.00000
      5       3.5319      1.00000
      6       3.8361      1.00000
      7       3.8615      1.00000
      8       4.1611      1.00000
      9       4.6478      1.00000
     10       5.0769      1.00000
     11       5.4441      0.99910
     12       6.8107      0.00000
     13      20.0494      0.00000
     14      20.4935      0.00000
     15      22.1760      0.00000
     16      23.0132      0.00000
     17      24.1664      0.00000
     18      25.9304      0.00000

 k-point     5 :       0.1875    0.1875    0.0625
  band No.  band energies     occupation 
      1      -1.1987      1.00000
      2       1.4516      1.00000
      3       1.5919      1.00000
      4       3.0862      1.00000
      5       3.2722      1.00000
      6       4.2684      1.00000
      7       4.2800      1.00000
      8       4.4548      1.00000
      9       4.6521      1.00000
     10       5.0129      1.00567
     11       5.8440      0.04921
     12      12.4523      0.00000
     13      14.0469      0.00000
     14      17.2686      0.00000
     15      23.2429      0.00000
     16      24.4305      0.00000
     17      26.0248      0.00000
     18      27.3084      0.00000

 k-point     6 :       0.3125    0.1875    0.0625
  band No.  band energies     occupation 
      1      -0.1926      1.00000
      2       1.6445      1.00000
      3       2.0609      1.00000
      4       2.9569      1.00000
      5       3.2038      1.00000
      6       3.6918      1.00000
      7       4.3202      1.00000
      8       4.5392      1.00000
      9       4.7381      1.00000
     10       4.8551      1.00826
     11       5.7654      0.26126
     12       9.7922      0.00000
     13      15.0478      0.00000
     14      18.8072      0.00000
     15      21.6122      0.00000
     16      23.8936      0.00000
     17      25.3759      0.00000
     18      27.8775      0.00000

 k-point     7 :       0.4375    0.1875    0.0625
  band No.  band energies     occupation 
      1       0.8667      1.00000
      2       1.5250      1.00000
      3       2.5402      1.00000
      4       2.8869      1.00000
      5       3.1622      1.00000
      6       3.3234      1.00000
      7       4.2696      1.00000
      8       4.3029      1.00000
      9       5.0693      1.00000
     10       5.4708      1.01402
     11       5.5890      0.63405
     12       7.2262      0.00000
     13      16.8869      0.00000
     14      19.0822      0.00000
     15      20.7791      0.00000
     16      23.0013      0.00000
     17      24.9636      0.00000
     18      26.6139      0.00000

 k-point     8 :       0.3125    0.3125    0.0625
  band No.  band energies     occupation 
      1       0.4569      1.00000
      2       1.5059      1.00000
      3       2.6797      1.00000
      4       2.6941      1.00000
      5       3.1446      1.00000
      6       3.4594      1.00000
      7       4.3888      1.00000
      8       4.5683      1.00000
      9       4.7329      1.00000
     10       5.3393      1.05530
     11       5.9203     -0.01420
     12       9.6041      0.00000
     13      13.2896      0.00000
     14      18.6520      0.00000
     15      20.0249      0.00000
     16      24.4014      0.00000
     17      25.0511      0.00000
     18      27.3465      0.00000

 k-point     9 :       0.4375    0.3125    0.0625
  band No.  band energies     occupation 
      1       0.9366      1.00000
      2       1.2541      1.00000
      3       2.6038      1.00000
      4       2.7587      1.00000
      5       3.3526      1.00000
      6       3.7438      1.00000
      7       4.4771      1.00000
      8       4.6126      1.00000
      9       5.1641      1.00000
     10       5.7776      0.56047
     11       6.0245     -0.02996
     12       7.6399      0.00000
     13      14.1803      0.00000
     14      16.1307      0.00000
     15      21.6596      0.00000
     16      23.5107      0.00000
     17      25.1900      0.00000
     18      26.2457      0.00000

 k-point    10 :       0.4375    0.4375    0.0625
  band No.  band energies     occupation 
      1       0.9127      1.00000
      2       1.0055      1.00000
      3       2.4098      1.00000
      4       2.4670      1.00000
      5       4.2333      1.00000
      6       4.6337      1.00000
      7       4.6525      1.00000
      8       4.8014      1.00000
      9       5.1530      1.00000
     10       5.7616      0.36159
     11       6.5716      0.00000
     12       7.3666      0.00000
     13      13.0528      0.00000
     14      13.9421      0.00000
     15      22.8098      0.00000
     16      23.7038      0.00000
     17      25.3174      0.00000
     18      25.4849      0.00000

 k-point    11 :       0.1875    0.1875    0.1875
  band No.  band energies     occupation 
      1      -0.6413      1.00000
      2       1.7515      1.00000
      3       1.7515      1.00000
      4       2.9799      1.00000
      5       2.9799      1.00000
      6       3.5897      1.00000
      7       4.5773      1.00000
      8       4.5773      1.00000
      9       4.7691      1.00000
     10       5.3957      0.99988
     11       5.3957      1.08726
     12      13.4180      0.00000
     13      13.4180      0.00000
     14      15.2966      0.00000
     15      24.3340      0.00000
     16      24.3341      0.00000
     17      26.4570      0.00000
     18      26.4573      0.00000

 k-point    12 :       0.3125    0.1875    0.1875
  band No.  band energies     occupation 
      1       0.2975      1.00000
      2       2.0268      1.00000
      3       2.0453      1.00000
      4       2.8106      1.00000
      5       2.8757      1.00000
      6       3.1167      1.00000
      7       4.4552      1.00000
      8       4.7696      1.00000
      9       4.8542      1.00000
     10       5.4033      1.00034
     11       5.4775      0.67947
     12      10.5444      0.00000
     13      14.9919      0.00000
     14      16.1295      0.00000
     15      21.5599      0.00000
     16      22.5137      0.00000
     17      26.5622      0.00000
     18      27.3467      0.00000

 k-point    13 :       0.4375    0.1875    0.1875
  band No.  band energies     occupation 
      1       1.2033      1.00000
      2       1.7958      1.00000
      3       2.3368      1.00000
      4       2.6027      1.00000
      5       3.0754      1.00000
      6       3.1637      1.00000
      7       4.3771      1.00000
      8       4.4856      1.00000
      9       4.9937      1.00000
     10       5.2852      1.01159
     11       6.3163     -0.11791
     12       7.9902      0.00000
     13      16.9138      0.00000
     14      17.7497      0.00000
     15      19.0978      0.00000
     16      19.9237      0.00000
     17      27.3863      0.00000
     18      28.3853      0.00000

 k-point    14 :       0.3125    0.3125    0.1875
  band No.  band energies     occupation 
      1       0.9813      1.00000
      2       1.8863      1.00000
      3       2.5852      1.00000
      4       2.6595      1.00000
      5       2.7030      1.00000
      6       2.8934      1.00000
      7       4.6167      1.00000
      8       4.7357      1.00000
      9       4.7375      1.00000
     10       5.4155      1.00483
     11       6.1734     -0.04759
     12      10.7559      0.00000
     13      13.3682      0.00000
     14      16.7554      0.00000
     15      19.0039      0.00000
     16      22.2980      0.00000
     17      24.0052      0.00000
     18      27.7393      0.00000

 k-point    15 :       0.4375    0.3125    0.1875
  band No.  band energies     occupation 
      1       1.3828      1.00000
      2       1.6271      1.00000
      3       2.4888      1.00000
      4       2.5207      1.00000
      5       3.2156      1.00000
      6       3.2750      1.00000
      7       4.6162      1.00000
      8       4.6266      1.00000
      9       4.9083      1.00000
     10       5.2419      1.03472
     11       7.1852     -0.01487
     12       8.8439      0.00000
     13      14.4296      0.00000
     14      16.4644      0.00000
     15      18.2915      0.00000
     16      20.3482      0.00000
     17      24.5225      0.00000
     18      26.1462      0.00000

 k-point    16 :       0.4375    0.4375    0.1875
  band No.  band energies     occupation 
      1       1.3382      1.00000
      2       1.3981      1.00000
      3       2.3575      1.00000
      4       2.3936      1.00000
      5       3.8503      1.00000
      6       3.9884      1.00000
      7       4.7151      1.00000
      8       4.7351      1.00000
      9       4.8119      1.00000
     10       5.0706      1.06655
     11       8.1461      0.00000
     12       9.0269      0.00000
     13      13.1652      0.00000
     14      14.1783      0.00000
     15      19.6828      0.00000
     16      21.1699      0.00000
     17      22.4484      0.00000
     18      23.8100      0.00000

 k-point    17 :       0.3125    0.3125    0.3125
  band No.  band energies     occupation 
      1       1.7819      1.00000
      2       2.1833      1.00000
      3       2.4690      1.00000
      4       2.4690      1.00000
      5       2.5726      1.00000
      6       2.5726      1.00000
      7       4.7294      1.00000
      8       4.7294      1.00000
      9       4.9759      1.00000
     10       4.9759      1.00000
     11       7.1958     -0.03134
     12      12.4853      0.00000
     13      12.4853      0.00000
     14      15.1168      0.00000
     15      19.4834      0.00000
     16      19.4834      0.00000
     17      21.0854      0.00000
     18      26.0852      0.00000

 k-point    18 :       0.4375    0.3125    0.3125
  band No.  band energies     occupation 
      1       1.9401      1.00000
      2       1.9624      1.00000
      3       2.4162      1.00000
      4       2.4643      1.00000
      5       2.8520      1.00000
      6       2.9968      1.00000
      7       4.7225      1.00000
      8       4.7702      1.00000
      9       4.8476      1.00000
     10       4.9765      1.00000
     11       8.4540     -0.00153
     12      10.2570      0.00000
     13      14.5513      0.00000
     14      15.9428      0.00000
     15      16.8898      0.00000
     16      17.7466      0.00000
     17      21.5672      0.00000
     18      23.5345      0.00000

 k-point    19 :       0.4375    0.4375    0.3125
  band No.  band energies     occupation 
      1       1.9447      1.00000
      2       1.9991      1.00000
      3       2.3221      1.00000
      4       2.4009      1.00000
      5       3.1506      1.00000
      6       3.2007      1.00000
      7       4.7972      1.00000
      8       4.8072      1.00000
      9       4.8257      1.00000
     10       4.8807      1.00000
     11       9.8308      0.00000
     12      11.0231      0.00000
     13      13.4445      0.00000
     14      14.7957      0.00000
     15      16.8031      0.00000
     16      18.3889      0.00000
     17      19.3453      0.00000
     18      20.9626      0.00000

 k-point    20 :       0.4375    0.4375    0.4375
  band No.  band energies     occupation 
      1       2.2087      1.00000
      2       2.4029      1.00000
      3       2.4029      1.00000
      4       2.6847      1.00000
      5       2.6847      1.00000
      6       2.7398      1.00000
      7       4.8359      1.00000
      8       4.8359      1.00000
      9       4.8449      1.00000
     10       4.8449      1.00000
     11      11.5799      0.00000
     12      13.2687      0.00000
     13      13.2687      0.00000
     14      15.2718      0.00000
     15      15.7333      0.00000
     16      15.7333      0.00000
     17      17.2313      0.00000
     18      18.4252      0.00000

 spin component 2

 k-point     1 :       0.0625    0.0625    0.0625
  band No.  band energies     occupation 
      1      -2.2476      1.00000
      2       2.8524      1.00000
      3       2.8525      1.00000
      4       5.2682      1.00000
      5       5.2683      1.00000
      6       5.4901      0.96860
      7       7.3387      0.00000
      8       7.3388      0.00000
      9       7.5424      0.00000
     10       7.9066      0.00000
     11       7.9067      0.00000
     12      15.6000      0.00000
     13      15.6000      0.00000
     14      15.9320      0.00000
     15      22.9501      0.00000
     16      22.9501      0.00000
     17      28.1143      0.00000
     18      29.4519      0.00000

 k-point     2 :       0.1875    0.0625    0.0625
  band No.  band energies     occupation 
      1      -1.6211      1.00000
      2       3.0318      1.00000
      3       3.1556      1.00000
      4       5.1579      1.00000
      5       5.2288      1.00000
      6       5.7715      0.17092
      7       6.8652      0.00000
      8       7.0176      0.00000
      9       7.3338      0.00000
     10       7.4819      0.00000
     11       7.8735      0.00000
     12      13.0978      0.00000
     13      16.7816      0.00000
     14      16.9907      0.00000
     15      23.1712      0.00000
     16      24.4805      0.00000
     17      27.0543      0.00000
     18      28.5382      0.00000

 k-point     3 :       0.3125    0.0625    0.0625
  band No.  band energies     occupation 
      1      -0.4533      1.00000
      2       3.0647      1.00000
      3       3.7201      1.00000
      4       5.1531      1.00000
      5       5.1911      1.00000
      6       6.1650     -0.00911
      7       6.1685      0.00000
      8       6.4518      0.00000
      9       6.6136      0.00000
     10       7.5735      0.00000
     11       7.7081      0.00000
     12      10.4911      0.00000
     13      18.6558      0.00000
     14      18.8501      0.00000
     15      23.6961      0.00000
     16      24.7955      0.00000
     17      25.3606      0.00000
     18      26.2186      0.00000

 k-point     4 :       0.4375    0.0625    0.0625
  band No.  band energies     occupation 
      1       1.0411      1.00000
      2       2.4091      1.00000
      3       4.4444      1.00000
      4       5.0517      1.00000
      5       5.3187      1.00000
      6       5.6601      0.82256
[...]
      8       6.8935      0.00000
      9       7.6846      0.00000
     10       7.7298      0.00000
     11       8.4261      0.00000
     12       9.7879      0.00000
     13      18.0284      0.00000
     14      18.7130      0.00000
     15      20.0866      0.00000
     16      20.8267      0.00000
     17      28.1867      0.00000
     18      29.1141      0.00000

 k-point    14 :       0.3125    0.3125    0.1875
  band No.  band energies     occupation 
      1       1.5281      1.00000
      2       3.4730      1.00000
      3       4.3447      1.00000
      4       4.3462      1.00000
      5       4.4520      1.00000
      6       4.5291      1.00553
      7       7.1090      0.00000
      8       7.3467      0.00000
      9       7.6185      0.00000
     10       7.7814      0.00000
     11       8.2021      0.00000
     12      12.0827      0.00000
     13      14.7144      0.00000
     14      17.7491      0.00000
     15      19.9724      0.00000
     16      22.9751      0.00000
     17      25.0118      0.00000
     18      28.4048      0.00000

 k-point    15 :       0.4375    0.3125    0.1875
  band No.  band energies     occupation 
      1       2.3767      1.00000
      2       2.9890      1.00000
      3       4.2158      1.00000
      4       4.2394      1.00000
      5       4.6695      1.00026
      6       4.7621      1.00371
      7       7.1545      0.00000
      8       7.2653      0.00000
      9       7.7426      0.00000
     10       7.7912      0.00000
     11       9.0697      0.00000
     12      10.4254      0.00000
     13      15.6988      0.00000
     14      17.5819      0.00000
     15      19.2106      0.00000
     16      21.1705      0.00000
     17      25.3450      0.00000
     18      26.8813      0.00000

 k-point    16 :       0.4375    0.4375    0.1875
  band No.  band energies     occupation 
      1       2.6112      1.00000
      2       2.7759      1.00000
      3       4.0523      1.00000
      4       4.0860      1.00000
      5       5.1346      1.01914
      6       5.2068      1.02196
      7       7.3833      0.00000
      8       7.4444      0.00000
      9       7.7480      0.00000
     10       7.7939      0.00000
     11       9.7496      0.00000
     12      10.4126      0.00000
     13      14.6320      0.00000
     14      15.5027      0.00000
     15      20.4891      0.00000
     16      21.8227      0.00000
     17      23.3743      0.00000
     18      24.5880      0.00000

 k-point    17 :       0.3125    0.3125    0.3125
  band No.  band energies     occupation 
      1       2.3810      1.00000
      2       3.7610      1.00000
      3       4.1622      1.00000
      4       4.1622      1.00000
      5       4.1903      1.00000
      6       4.1904      1.00000
      7       7.4939      0.00000
      8       7.4940      0.00000
      9       7.5712      0.00000
     10       7.5714      0.00000
     11       9.1127      0.00000
     12      13.7459      0.00000
     13      13.7459      0.00000
     14      16.2486      0.00000
     15      20.3418      0.00000
     16      20.3418      0.00000
     17      22.0986      0.00000
     18      26.8989      0.00000

 k-point    18 :       0.4375    0.3125    0.3125
  band No.  band energies     occupation 
      1       3.0683      1.00000
      2       3.4102      1.00000
      3       4.0457      1.00000
      4       4.0603      1.00000
      5       4.2411      1.00000
      6       4.4476      1.00000
      7       7.4354      0.00000
      8       7.4945      0.00000
      9       7.7048      0.00000
     10       7.7337      0.00000
     11      10.1617      0.00000
     12      11.6951      0.00000
     13      15.7017      0.00000
     14      16.9968      0.00000
     15      17.9036      0.00000
     16      18.7023      0.00000
     17      22.4316      0.00000
     18      24.3496      0.00000

 k-point    19 :       0.4375    0.4375    0.3125
  band No.  band energies     occupation 
      1       3.3483      1.00000
      2       3.3910      1.00000
      3       3.9293      1.00000
      4       3.9732      1.00000
      5       4.4151      1.00000
      6       4.5444      1.00000
      7       7.5932      0.00000
      8       7.6211      0.00000
      9       7.7508      0.00000
     10       7.7616      0.00000
     11      11.2900      0.00000
     12      12.2765      0.00000
     13      14.7433      0.00000
     14      15.9503      0.00000
     15      17.7671      0.00000
     16      19.2430      0.00000
     17      20.2789      0.00000
     18      21.8105      0.00000

 k-point    20 :       0.4375    0.4375    0.4375
  band No.  band energies     occupation 
      1       3.7117      1.00000
      2       3.9115      1.00000
      3       3.9115      1.00000
      4       4.0077      1.00000
      5       4.1005      1.00000
      6       4.1006      1.00000
      7       7.7576      0.00000
      8       7.7578      0.00000
      9       7.7657      0.00000
     10       7.7659      0.00000
     11      12.8709      0.00000
     12      14.4038      0.00000
     13      14.4038      0.00000
     14      16.3606      0.00000
     15      16.7410      0.00000
     16      16.7410      0.00000
     17      18.2063      0.00000
     18      19.3324      0.00000


--------------------------------------------------------------------------------------------------------


 soft charge-density along one line, spin component           1
         0         1         2         3         4         5         6         7         8         9
 total charge-density along one line
 
 soft charge-density along one line, spin component           2
         0         1         2         3         4         5         6         7         8         9
 total charge-density along one line
 
 pseudopotential strength for first ion, spin component:           1
 -5.574   0.000   0.000  -0.000  -0.000  -6.106   0.000   0.000
  0.000  -5.574  -0.000  -0.000   0.000   0.000  -6.106  -0.000
  0.000  -0.000  -5.794  -0.000   0.000   0.000  -0.000  -6.318
 -0.000  -0.000  -0.000  -5.574   0.000  -0.000  -0.000  -0.000
 -0.000   0.000   0.000   0.000  -5.794  -0.000   0.000   0.000
 -6.106   0.000   0.000  -0.000  -0.000  -6.595   0.000   0.000
  0.000  -6.106  -0.000  -0.000   0.000   0.000  -6.595  -0.000
  0.000  -0.000  -6.318  -0.000   0.000   0.000  -0.000  -6.800
 -0.000  -0.000  -0.000  -6.106   0.000  -0.000  -0.000  -0.000
 -0.000   0.000   0.000   0.000  -6.318  -0.000   0.000   0.000
  0.000   0.000   0.000  -0.000  -0.000   0.000   0.000   0.000
  0.000   0.000   0.000  -0.000  -0.000   0.000   0.000   0.000
  0.000  -0.000   0.000   0.000   0.000   0.000  -0.000   0.000
  0.000  -0.000  -0.000  -0.000  -0.000   0.000  -0.000  -0.000
 -0.000   0.000   0.000  -0.000  -0.000  -0.000   0.000   0.000
  0.000  -0.000   0.000   0.000   0.000   0.000  -0.000   0.000
  0.000  -0.000  -0.000  -0.000  -0.000   0.000  -0.000  -0.000
 -0.000   0.000   0.000  -0.000  -0.000  -0.000   0.000   0.000
 pseudopotential strength for first ion, spin component:           2
 -4.173  -0.000   0.000  -0.000  -0.000  -4.747  -0.000   0.000
 -0.000  -4.173  -0.000  -0.000   0.000  -0.000  -4.747  -0.000
  0.000  -0.000  -3.909  -0.000  -0.000   0.000  -0.000  -4.492
 -0.000  -0.000  -0.000  -4.173   0.000  -0.000  -0.000  -0.000
 -0.000   0.000  -0.000   0.000  -3.909  -0.000   0.000  -0.000
 -4.747  -0.000   0.000  -0.000  -0.000  -5.278  -0.000   0.000
 -0.000  -4.747  -0.000  -0.000   0.000  -0.000  -5.278  -0.000
  0.000  -0.000  -4.492  -0.000  -0.000   0.000  -0.000  -5.032
 -0.000  -0.000  -0.000  -4.747   0.000  -0.000  -0.000  -0.000
 -0.000   0.000  -0.000   0.000  -4.492  -0.000   0.000  -0.000
  0.000   0.000  -0.000   0.000   0.000   0.000   0.000  -0.000
  0.000   0.000  -0.000   0.000   0.000   0.000   0.000  -0.000
  0.000  -0.000   0.000  -0.000   0.000   0.000  -0.000   0.000
 -0.000  -0.000  -0.000  -0.000  -0.000  -0.000  -0.000  -0.000
 -0.000  -0.000   0.000  -0.000  -0.000  -0.000  -0.000   0.000
  0.000  -0.000   0.000  -0.000   0.000   0.000  -0.000   0.000
 -0.000  -0.000  -0.000  -0.000  -0.000  -0.000  -0.000  -0.000
 -0.000  -0.000   0.000  -0.000  -0.000  -0.000  -0.000   0.000
 total augmentation occupancy for first ion, spin component:           1
  2.170  -0.000   0.000  -0.000   0.000  -1.193   0.000  -0.000  -0.000   0.000   0.000  -0.000   0.000  -0.000   0.000   0.000
 -0.000   2.170  -0.000  -0.000  -0.000  -0.000  -1.193  -0.000   0.000  -0.000   0.000  -0.000   0.000   0.000   0.000  -0.000
 -0.000  -0.000   3.698  -0.000   0.000   0.000   0.000  -2.411   0.000  -0.000   0.000  -0.000   0.000   0.000   0.000   0.000
  0.000   0.000  -0.000   2.170   0.000   0.000  -0.000   0.000  -1.193   0.000  -0.000   0.000  -0.000   0.000   0.000  -0.000
  0.000  -0.000  -0.000   0.000   3.698   0.000  -0.000   0.000   0.000  -2.411  -0.000   0.000  -0.000   0.000   0.000   0.000
 -1.193   0.000   0.000   0.000   0.000   1.608  -0.000   0.000  -0.000  -0.000   0.000   0.000   0.000   0.000  -0.000   0.000
  0.000  -1.193  -0.000   0.000  -0.000   0.000   1.608  -0.000  -0.000  -0.000   0.000  -0.000   0.000   0.000   0.000   0.000
 -0.000   0.000  -2.411   0.000  -0.000   0.000  -0.000   2.389   0.000   0.000   0.000   0.000   0.000   0.000   0.000  -0.000
 -0.000   0.000  -0.000  -1.193   0.000  -0.000  -0.000  -0.000   1.608  -0.000  -0.000   0.000   0.000   0.000  -0.000   0.000
  0.000  -0.000   0.000   0.000  -2.411   0.000   0.000   0.000   0.000   2.389   0.000   0.000   0.000   0.000   0.000  -0.000
  0.000  -0.000   0.000  -0.000  -0.000   0.000   0.000   0.000  -0.000   0.000   2.424  -0.281   0.000   0.000   0.000  -0.000
 -0.000  -0.000  -0.000  -0.000   0.000  -0.000   0.000  -0.000   0.000   0.000  -0.281   0.038  -0.000   0.000   0.000   0.000
  0.000   0.000  -0.000  -0.000   0.000   0.000   0.000   0.000   0.000  -0.000   0.000  -0.000   0.298  -0.000  -0.000  -0.026
 -0.000   0.000   0.000   0.000   0.000   0.000   0.000   0.000   0.000   0.000   0.000   0.000  -0.000   0.298  -0.000   0.000
  0.000   0.000   0.000   0.000   0.000   0.000   0.000   0.000   0.000   0.000   0.000  -0.000  -0.000   0.000   0.298   0.000
  0.000  -0.000  -0.000  -0.000   0.000  -0.000   0.000   0.000   0.000   0.000  -0.000   0.000  -0.026   0.000   0.000   0.002
  0.000  -0.000   0.000   0.000   0.000   0.000  -0.000   0.000  -0.000   0.000   0.000   0.000   0.000  -0.026   0.000  -0.000
 -0.000  -0.000   0.000  -0.000   0.000  -0.000   0.000  -0.000  -0.000  -0.000   0.000  -0.000   0.000   0.000  -0.026  -0.000
 total augmentation occupancy for first ion, spin component:           2
  1.780  -0.000   0.000  -0.000  -0.000  -0.729   0.000   0.000  -0.000   0.000  -0.000  -0.000   0.000   0.000   0.000  -0.000
  0.000   1.780  -0.000  -0.000   0.000   0.000  -0.729   0.000  -0.000  -0.000  -0.000  -0.000   0.000   0.000  -0.000   0.000
  0.000   0.000   3.129  -0.000   0.000   0.000  -0.000  -1.401   0.000   0.000  -0.000   0.000   0.000  -0.000  -0.000   0.000
  0.000  -0.000   0.000   1.780   0.000   0.000   0.000   0.000  -0.729   0.000  -0.000   0.000   0.000   0.000   0.000   0.000
  0.000  -0.000   0.000   0.000   3.129  -0.000  -0.000  -0.000   0.000  -1.401   0.000   0.000   0.000   0.000   0.000   0.000
 -0.729   0.000   0.000   0.000   0.000   0.059   0.000  -0.000   0.000   0.000  -0.000  -0.000   0.000   0.000   0.000  -0.000
  0.000  -0.729  -0.000  -0.000   0.000  -0.000   0.059  -0.000  -0.000   0.000   0.000  -0.000   0.000   0.000   0.000   0.000
  0.000   0.000  -1.401   0.000   0.000  -0.000  -0.000   0.391   0.000  -0.000  -0.000  -0.000   0.000   0.000   0.000  -0.000
 -0.000   0.000  -0.000  -0.729  -0.000  -0.000   0.000   0.000   0.059  -0.000  -0.000   0.000   0.000   0.000   0.000  -0.000
  0.000  -0.000   0.000   0.000  -1.401  -0.000  -0.000  -0.000   0.000   0.391  -0.000   0.000   0.000   0.000   0.000   0.000
  0.000  -0.000  -0.000  -0.000  -0.000   0.000   0.000  -0.000  -0.000   0.000  -0.325   0.098   0.000  -0.000  -0.000   0.000
 -0.000   0.000   0.000   0.000  -0.000  -0.000   0.000  -0.000  -0.000   0.000   0.098  -0.017   0.000   0.000   0.000   0.000
  0.000   0.000   0.000   0.000   0.000  -0.000   0.000   0.000   0.000   0.000   0.000   0.000  -0.039  -0.000  -0.000   0.006
  0.000   0.000   0.000   0.000   0.000   0.000   0.000   0.000   0.000   0.000  -0.000   0.000   0.000  -0.039   0.000   0.000
 -0.000  -0.000   0.000   0.000   0.000   0.000   0.000   0.000   0.000   0.000  -0.000   0.000   0.000  -0.000  -0.039   0.000
  0.000  -0.000  -0.000   0.000   0.000   0.000   0.000  -0.000   0.000   0.000   0.000  -0.000   0.006   0.000   0.000  -0.001
  0.000   0.000   0.000  -0.000  -0.000  -0.000  -0.000   0.000   0.000   0.000   0.000  -0.000   0.000   0.006  -0.000   0.000
 -0.000   0.000   0.000   0.000   0.000   0.000   0.000   0.000  -0.000   0.000   0.000  -0.000   0.000   0.000   0.006  -0.000


------------------------ aborting loop because EDIFF is reached ----------------------------------------


 


 total charge     
 
# of ion       s       p       d       tot
------------------------------------------
    1        0.489   0.549   6.237   7.276
    2        0.489   0.549   6.237   7.276
--------------------------------------------------
tot          0.978   1.098  12.475  14.551
 


 magnetization (x)
 
# of ion       s       p       d       tot
------------------------------------------
    1       -0.013  -0.060   2.216   2.143
    2       -0.013  -0.060   2.216   2.143
--------------------------------------------------
tot         -0.025  -0.121   4.432   4.286
 
    CHARGE:  cpu time    0.0145: real time    0.0146
    FORLOC:  cpu time    0.0004: real time    0.0004
    FORNL :  cpu time    0.0259: real time    0.0259
    STRESS:  cpu time    0.0586: real time    0.0587
    FORCOR:  cpu time    0.0146: real time    0.0147
    FORHAR:  cpu time    0.0015: real time    0.0015
    MIXING:  cpu time    0.0006: real time    0.0006
    OFIELD:  cpu time    0.0000: real time    0.0000

  FORCE on cell =-STRESS in cart. coord.  units (eV):
  Direction    XX          YY          ZZ          XY          YZ          ZX
  --------------------------------------------------------------------------------------
  Alpha Z   122.22477   122.22477   122.22477
  Ewald    -395.30856  -395.30856  -395.30856    -0.00000    -0.00000    -0.00000
  Hartree    63.03859    63.03859    63.03859    -0.00000    -0.00000    -0.00000
  E(xc)     -79.39981   -79.39981   -79.39981     0.00000    -0.00000     0.00000
  Local     118.08549   118.08549   118.08549    -0.00000     0.00000    -0.00000
  n-local   -54.60517   -51.54943   -48.87460     2.45816    -0.88619     0.77709
  augment    77.40939    77.40939    77.40939    -0.00000     0.00000     0.00000
  Kinetic   148.26085   145.30023   143.29896     3.00915    -0.61168     0.18839
  Fock        0.00000     0.00000     0.00000     0.00000     0.00000     0.00000
  -------------------------------------------------------------------------------------
  Total      -0.00653    -0.00653    -0.00653    -0.00000    -0.00000     0.00000
  in kB      -0.46236    -0.46236    -0.46236    -0.00000    -0.00000     0.00000
  external pressure =       -0.46 kB  Pullay stress =        0.00 kB


 VOLUME and BASIS-vectors are now :
 -----------------------------------------------------------------------------
  energy-cutoff  :      520.00
  volume of cell :       22.62
      direct lattice vectors                 reciprocal lattice vectors
     2.828058986 -0.000000000 -0.000000000     0.353599414 -0.000000000 -0.000000000
     0.000000000  2.828058986 -0.000000000     0.000000000  0.353599414 -0.000000000
     0.000000000  0.000000000  2.828058986     0.000000000  0.000000000  0.353599414

  length of vectors
     2.828058986  2.828058986  2.828058986     0.353599414  0.353599414  0.353599414


 FORCES acting on ions
    electron-ion (+dipol)            ewald-force                    non-local-force                 convergence-correction
 -----------------------------------------------------------------------------------------------
   -.450E-14 -.876E-14 -.905E-14   0.402E-14 -.578E-14 -.365E-15   -.248E-27 -.448E-28 0.000E+00   0.898E-14 -.178E-15 -.694E-14
   0.156E-12 0.218E-12 -.114E-11   -.571E-14 0.488E-14 0.585E-15   0.344E-26 0.511E-28 0.000E+00   0.331E-14 0.912E-15 -.465E-14
 -----------------------------------------------------------------------------------------------
   0.152E-12 0.210E-12 -.115E-11   -.168E-14 -.903E-15 0.220E-15   0.320E-26 0.627E-29 0.000E+00   0.123E-13 0.734E-15 -.116E-13
 
 
 POSITION                                       TOTAL-FORCE (eV/Angst)
 -----------------------------------------------------------------------------------
      0.00000      0.00000      0.00000         0.000000      0.000000      0.000000
      1.41403      1.41403      1.41403        -0.000000     -0.000000     -0.000000
 -----------------------------------------------------------------------------------
    total drift:                                0.000000      0.000000     -0.000000


--------------------------------------------------------------------------------------------------------



  FREE ENERGIE OF THE ION-ELECTRON SYSTEM (eV)
  ---------------------------------------------------
  free  energy   TOTEN  =       -16.48717672 eV

  energy  without entropy=      -16.48717672  energy(sigma->0) =      -16.48717672
 
 d Force = 0.0000000E+00[ 0.000E+00, 0.000E+00]  d Energy = 0.5266263E-02-0.527E-02
 d Force = 0.0000000E+00[ 0.000E+00, 0.000E+00]  d Ewald  =-0.4921143E+01 0.492E+01


--------------------------------------------------------------------------------------------------------


    POTLOK:  cpu time    0.5488: real time    0.5501


--------------------------------------------------------------------------------------------------------




--------------------------------------------------------------------------------------------------------


  
 reached required accuracy - stopping structural energy minimisation
     LOOP+:  cpu time    8.4400: real time    8.4698
    4ORBIT:  cpu time    0.0000: real time    0.0000
 


 total charge     
 
# of ion       s       p       d       tot
------------------------------------------
    1        0.489   0.549   6.237   7.276
    2        0.489   0.549   6.237   7.276
--------------------------------------------------
tot          0.978   1.098  12.475  14.551
 


 magnetization (x)
 
# of ion       s       p       d       tot
------------------------------------------
    1       -0.013  -0.060   2.216   2.143
    2       -0.013  -0.060   2.216   2.143
--------------------------------------------------
tot         -0.025  -0.121   4.432   4.286
 
 BZINTS: Fermi energy:  5.833866; 16.000000 electrons
         Band energy:  57.282733;  BLOECHL correction: -0.050483

 total amount of memory used by VASP MPI-rank0    33389. kBytes
=======================================================================

   base      :      30000. kBytes
   nonl-proj :        460. kBytes
   fftplans  :        577. kBytes
   grid      :       1308. kBytes
   one-center:         31. kBytes
   wavefun   :       1013. kBytes
 
  
  
 General timing and accounting informations for this job:
 ========================================================
  
                  Total CPU time used (sec):       29.914
                            User time (sec):       29.130
                          System time (sec):        0.784
                         Elapsed time (sec):       30.125
  
                   Maximum memory used (kb):       53076.
                   Average memory used (kb):           0.
  
                          Minor page faults:        15278
                          Major page faults:            0
                 Voluntary context switches:          175
