=========================================
SLURM_JOB_ID = 51706447
SLURM_JOB_NODELIST = lnode17
SLURM_GPUS = 
SLURM_CPUS_ON_NODE = 24
SLURM_JOB_PARTITION = lenovo
SLURM_TASK_PID = 3021885
CUDA_VISIBLE_DEVICES = 
==========================================
 running on   24 total cores
 distrk:  each k-point on   24 cores,    1 groups
 distr:  one band on    4 cores,    6 groups
 using from now: INCAR     
 vasp.5.4.4.18Apr17-6-g9f103f2a35 (build Apr 28 2018 00:24:27) complex          
  
 POSCAR found type information on POSCAR  Fe O 
 POSCAR found :  2 types and      30 ions
 scaLAPACK will be used
 LDA part: xc-table for Pade appr. of Perdew
 POSCAR, INCAR and KPOINTS ok, starting setup
 FFT: planning ...
 WAVECAR not read
 entering main loop
       N       E                     dE             d eps       ncg     rms          rms(c)
DAV:   1     0.456046418723E+04    0.45605E+04   -0.15524E+05 11544   0.213E+03
DAV:   2     0.507894383845E+03   -0.40526E+04   -0.36945E+04 11424   0.598E+02
DAV:   3    -0.243279391119E+03   -0.75117E+03   -0.66111E+03 11832   0.249E+02
DAV:   4    -0.293864179385E+03   -0.50585E+02   -0.49982E+02 12960   0.637E+01
DAV:   5    -0.294439991967E+03   -0.57581E+00   -0.57413E+00 12744   0.767E+00    0.809E+01
DAV:   6    -0.235311194555E+03    0.59129E+02   -0.25329E+02 14820   0.810E+01    0.913E+01
DAV:   7    -0.211609874738E+03    0.23701E+02   -0.11392E+02 12240   0.635E+01    0.437E+01
DAV:   8    -0.218301537671E+03   -0.66917E+01   -0.21323E+01 12096   0.171E+01    0.264E+01
DAV:   9    -0.222529498115E+03   -0.42280E+01   -0.82789E+00 12612   0.171E+01    0.274E+01
DAV:  10    -0.222134124936E+03    0.39537E+00   -0.24819E+00 12564   0.700E+00    0.186E+01
DAV:  11    -0.221561798864E+03    0.57233E+00   -0.23777E-01 14232   0.285E+00    0.122E+01
DAV:  12    -0.221361194077E+03    0.20060E+00   -0.19552E-01 15240   0.239E+00    0.846E+00
DAV:  13    -0.221357029540E+03    0.41645E-02   -0.11309E-01 13908   0.228E+00    0.464E+00
DAV:  14    -0.221403006106E+03   -0.45977E-01   -0.15830E-01 15012   0.202E+00    0.175E+00
DAV:  15    -0.221421746666E+03   -0.18741E-01   -0.64646E-02 12420   0.681E-01    0.141E+00
DAV:  16    -0.221416585312E+03    0.51614E-02   -0.94262E-03 14208   0.719E-01    0.349E-01
DAV:  17    -0.221417279028E+03   -0.69372E-03   -0.45664E-03 12324   0.173E-01    0.185E-01
DAV:  18    -0.221417518537E+03   -0.23951E-03   -0.21279E-04 14088   0.770E-02    0.915E-02
DAV:  19    -0.221417579904E+03   -0.61367E-04   -0.95941E-05 13872   0.448E-02    0.194E-02
DAV:  20    -0.221417592841E+03   -0.12937E-04   -0.26779E-05 12600   0.164E-02    0.891E-03
DAV:  21    -0.221417595221E+03   -0.23800E-05   -0.21059E-06 12360   0.659E-03    0.106E-02
DAV:  22    -0.221417596118E+03   -0.89753E-06   -0.10390E-06 10752   0.490E-03    0.578E-03
DAV:  23    -0.221417594283E+03    0.18352E-05   -0.25259E-07  8976   0.260E-03    0.159E-03
DAV:  24    -0.221417593489E+03    0.79438E-06   -0.78923E-08  6468   0.762E-04    0.815E-04
DAV:  25    -0.221417593728E+03   -0.23963E-06   -0.94434E-09  6216   0.399E-04    0.230E-04
DAV:  26    -0.221417593728E+03    0.33469E-09   -0.29637E-09  6192   0.176E-04
   1 F= -.22141759E+03 E0= -.22141759E+03  d E =0.000000E+00  mag=    42.3220
