 vasp.5.4.4.18Apr17-6-g9f103f2a35 (build Apr 28 2018 00:24:27) complex          
  
 executed on             LinuxIFC date 2021.09.06  03:35:20
 running on   24 total cores
 distrk:  each k-point on   24 cores,    1 groups
 distr:  one band on NCORES_PER_BAND=   4 cores,    6 groups


--------------------------------------------------------------------------------------------------------


 INCAR:
 POTCAR:    PAW_PBE Fe_pv 02Aug2007               
 POTCAR:    PAW_PBE O 08Apr2002                   
 POTCAR:    PAW_PBE Fe_pv 02Aug2007               
   VRHFIN =Fe:  3pd7s1                                                          
   LEXCH  = PE                                                                  
   EATOM  =  2457.4239 eV,  180.6156 Ry                                         
                                                                                
   TITEL  = PAW_PBE Fe_pv 02Aug2007                                             
   LULTRA =        F    use ultrasoft PP ?                                      
   IUNSCR =        1    unscreen: 0-lin 1-nonlin 2-no                           
   RPACOR =    1.750    partial core radius                                     
   POMASS =   55.847; ZVAL   =   14.000    mass and valenz                      
   RCORE  =    2.200    outmost cutoff radius                                   
   RWIGS  =    2.200; RWIGS  =    1.164    wigner-seitz radius (au A)           
   ENMAX  =  293.238; ENMIN  =  219.928 eV                                      
   ICORE  =        3    local potential                                         
   LCOR   =        T    correct aug charges                                     
   LPAW   =        T    paw PP                                                  
   EAUG   =  578.342                                                            
   DEXC   =    0.000                                                            
   RMAX   =    2.249    core radius for proj-oper                               
   RAUG   =    1.300    factor for augmentation sphere                          
   RDEP   =    2.296    radius for radial grids                                 
   RDEPT  =    1.766    core radius for aug-charge                              
                                                                                
   Atomic configuration                                                         
    8 entries                                                                   
     n  l   j            E        occ.                                          
     1  0  0.50     -6993.8440   2.0000                                         
     2  0  0.50      -814.6047   2.0000                                         
     2  1  1.50      -693.3689   6.0000                                         
     3  0  0.50       -89.4732   2.0000                                         
     3  1  1.50       -55.6373   6.0000                                         
     3  2  2.50        -3.8151   7.0000                                         
     4  0  0.50        -4.2551   1.0000                                         
     4  3  2.50        -1.3606   0.0000                                         
   Description                                                                  
     l       E           TYP  RCUT    TYP  RCUT                                 
     1    -55.6372668     23  2.000                                             
     1     -5.4423304     23  2.000                                             
     2     -3.8151096     23  2.200                                             
     2     -5.1756922     23  2.200                                             
     0     -4.2550951     23  2.200                                             
     0     27.2116520     23  2.200                                             
     3     -1.3605826     23  2.200                                             
  local pseudopotential read in
  partial core-charges read in
  partial kinetic energy density read in
  atomic valenz-charges read in
  non local Contribution for L=           1  read in
    real space projection operators read in
  non local Contribution for L=           1  read in
    real space projection operators read in
  non local Contribution for L=           2  read in
    real space projection operators read in
  non local Contribution for L=           2  read in
    real space projection operators read in
  non local Contribution for L=           0  read in
    real space projection operators read in
  non local Contribution for L=           0  read in
    real space projection operators read in
    PAW grid and wavefunctions read in
 
   number of l-projection  operators is LMAX  =           6
   number of lm-projection operators is LMMAX =          18
 
 POTCAR:    PAW_PBE O 08Apr2002                   
   VRHFIN =O: s2p4                                                              
   LEXCH  = PE                                                                  
   EATOM  =   432.3788 eV,   31.7789 Ry                                         
                                                                                
   TITEL  = PAW_PBE O 08Apr2002                                                 
   LULTRA =        F    use ultrasoft PP ?                                      
   IUNSCR =        1    unscreen: 0-lin 1-nonlin 2-no                           
   RPACOR =    1.200    partial core radius                                     
   POMASS =   16.000; ZVAL   =    6.000    mass and valenz                      
   RCORE  =    1.520    outmost cutoff radius                                   
   RWIGS  =    1.550; RWIGS  =    0.820    wigner-seitz radius (au A)           
   ENMAX  =  400.000; ENMIN  =  300.000 eV                                      
   ICORE  =        2    local potential                                         
   LCOR   =        T    correct aug charges                                     
   LPAW   =        T    paw PP                                                  
   EAUG   =  605.392                                                            
   DEXC   =    0.000                                                            
   RMAX   =    1.553    core radius for proj-oper                               
   RAUG   =    1.300    factor for augmentation sphere                          
   RDEP   =    1.550    radius for radial grids                                 
   RDEPT  =    1.329    core radius for aug-charge                              
                                                                                
   Atomic configuration                                                         
    4 entries                                                                   
     n  l   j            E        occ.                                          
     1  0  0.50      -514.6923   2.0000                                         
     2  0  0.50       -23.9615   2.0000                                         
     2  1  0.50        -9.0305   4.0000                                         
     3  2  1.50        -9.5241   0.0000                                         
   Description                                                                  
     l       E           TYP  RCUT    TYP  RCUT                                 
     0    -23.9615318     23  1.200                                             
     0     -9.5240782     23  1.200                                             
     1     -9.0304911     23  1.520                                             
     1      8.1634956     23  1.520                                             
     2     -9.5240782      7  1.500                                             
  local pseudopotential read in
  partial core-charges read in
  partial kinetic energy density read in
  kinetic energy density of atom read in
  atomic valenz-charges read in
  non local Contribution for L=           0  read in
    real space projection operators read in
  non local Contribution for L=           0  read in
    real space projection operators read in
  non local Contribution for L=           1  read in
    real space projection operators read in
  non local Contribution for L=           1  read in
    real space projection operators read in
    PAW grid and wavefunctions read in
 
   number of l-projection  operators is LMAX  =           4
   number of lm-projection operators is LMMAX =           8
 
 Optimization of the real space projectors (new method)

 maximal supplied QI-value         = 17.01
 optimisation between [QCUT,QGAM] = [ 12.93, 25.85] = [ 46.79,187.14] Ry 
 Optimized for a Real-space Cutoff    1.34 Angstroem

   l    n(q)    QCUT    max X(q) W(low)/X(q) W(high)/X(q)  e(spline) 
   1     10    12.926     4.267    0.15E-03    0.49E-04    0.26E-06
   1     10    12.926     5.750    0.22E-03    0.83E-04    0.41E-06
   2      9    12.926    53.656    0.14E-03    0.23E-04    0.23E-06
   2      9    12.926    49.521    0.15E-03    0.23E-04    0.24E-06
   0     10    12.926    31.246    0.29E-04    0.29E-05    0.16E-06
   0     10    12.926    12.201    0.25E-04    0.24E-05    0.13E-06
 Optimization of the real space projectors (new method)

 maximal supplied QI-value         = 24.76
 optimisation between [QCUT,QGAM] = [ 12.87, 25.75] = [ 46.40,185.61] Ry 
 Optimized for a Real-space Cutoff    1.16 Angstroem

   l    n(q)    QCUT    max X(q) W(low)/X(q) W(high)/X(q)  e(spline) 
   0      9    12.873    20.381    0.19E-03    0.10E-03    0.27E-06
   0      9    12.873    15.268    0.21E-03    0.11E-03    0.29E-06
   1      8    12.873     5.964    0.14E-03    0.18E-03    0.26E-06
   1      8    12.873     5.382    0.12E-03    0.16E-03    0.22E-06
  PAW_PBE Fe_pv 02Aug2007               :
 energy of atom  1       EATOM=-2457.4239
 kinetic energy error for atom=    0.0044 (will be added to EATOM!!)
  PAW_PBE O 08Apr2002                   :
 energy of atom  2       EATOM= -432.3788
 kinetic energy error for atom=    0.0137 (will be added to EATOM!!)
 
 
 POSCAR: Fe12 O18                                
  positions in direct lattice
  No initial velocities read in
 exchange correlation table for  LEXCH =        8
   RHO(1)=    0.500       N(1)  =     2000
   RHO(2)=  100.500       N(2)  =     4000
 


--------------------------------------------------------------------------------------------------------


 ion  position               nearest neighbor table
   1  0.000  0.000  0.355-  17 1.94  23 1.94  28 1.94  25 2.12  19 2.12  13 2.12
   2  0.000  0.000  0.645-  16 1.94  22 1.94  29 1.94  26 2.12  20 2.12  14 2.12
   3  0.333  0.667  0.022-  30 1.94  24 1.94  18 1.94  27 2.12  21 2.12  15 2.12
   4  0.667  0.333  0.689-  14 1.94  20 1.94  26 1.94  22 2.12  29 2.12  16 2.12
   5  0.333  0.667  0.311-  13 1.94  19 1.94  25 1.94  23 2.12  28 2.12  17 2.12
   6  0.667  0.333  0.978-  27 1.94  21 1.94  15 1.94  30 2.12  24 2.12  18 2.12
   7  0.000  0.000  0.145-  24 1.94  18 1.94  30 1.94  25 2.12  19 2.12  13 2.12
   8  0.000  0.000  0.855-  21 1.94  15 1.94  27 1.94  26 2.12  20 2.12  14 2.12
   9  0.333  0.667  0.811-  20 1.94  14 1.94  26 1.94  27 2.12  21 2.12  15 2.12
  10  0.333  0.667  0.522-  29 1.94  16 1.94  22 1.94  23 2.12  28 2.12  17 2.12
  11  0.667  0.333  0.478-  28 1.94  17 1.94  23 1.94  22 2.12  29 2.12  16 2.12
  12  0.667  0.333  0.189-  19 1.94  13 1.94  25 1.94  30 2.12  24 2.12  18 2.12
  13  0.306  0.000  0.250-   5 1.94  12 1.94   7 2.12   1 2.12
  14  0.694  0.000  0.750-   4 1.94   9 1.94   8 2.12   2 2.12
  15  0.640  0.667  0.917-   6 1.94   8 1.94   9 2.12   3 2.12
  16  0.973  0.333  0.583-  10 1.94   2 1.94   4 2.12  11 2.12
  17  0.027  0.667  0.417-  11 1.94   1 1.94   5 2.12  10 2.12
  18  0.360  0.333  0.083-   3 1.94   7 1.94  12 2.12   6 2.12
  19  0.000  0.306  0.250-  12 1.94   5 1.94   7 2.12   1 2.12
  20  0.000  0.694  0.750-   9 1.94   4 1.94   8 2.12   2 2.12
  21  0.333  0.973  0.917-   6 1.94   8 1.94   9 2.12   3 2.12
  22  0.667  0.640  0.583-  10 1.94   2 1.94   4 2.12  11 2.12
  23  0.333  0.360  0.417-  11 1.94   1 1.94   5 2.12  10 2.12
  24  0.667  0.027  0.083-   3 1.94   7 1.94  12 2.12   6 2.12
  25  0.694  0.694  0.250-  12 1.94   5 1.94   7 2.12   1 2.12
  26  0.306  0.306  0.750-   9 1.94   4 1.94   8 2.12   2 2.12
  27  0.027  0.360  0.917-   6 1.94   8 1.94   9 2.12   3 2.12
  28  0.640  0.973  0.417-  11 1.94   1 1.94   5 2.12  10 2.12
  29  0.360  0.027  0.583-  10 1.94   2 1.94   4 2.12  11 2.12
  30  0.973  0.640  0.083-   3 1.94   7 1.94  12 2.12   6 2.12
 
  LATTYP: Found a hexagonal cell.
 ALAT       =     5.0350995578
 C/A-ratio  =     2.7324385232
  
  Lattice vectors:
  
 A1 = (   5.0351000000,   0.0000000000,   0.0000000000)
 A2 = (  -2.5175500000,   4.3605240000,   0.0000000000)
 A3 = (   0.0000000000,   0.0000000000,  13.7581000000)


Analysis of symmetry for initial positions (statically):
=====================================================================
 Subroutine PRICEL returns following result:
 
  LATTYP: Found a trigonal (rhomboedric) cell.
 ALAT       =     5.4297801492
 COS(alpha) =     0.5700456062
  
  Lattice vectors:
  
 A1 = (  -2.5175449649,  -1.4535109070,  -4.5860425054)
 A2 = (  -0.0000025175,   2.9070174535,  -4.5860287473)
 A3 = (   2.5175474825,  -1.4535065465,  -4.5860287473)
 
   3 primitive cells build up your supercell.
 

 Routine SETGRP: Setting up the symmetry group for a 
 hexagonal supercell.


 Subroutine GETGRP returns: Found 12 space group operations
 (whereof  6 operations were pure point group operations)
 out of a pool of 24 trial point group operations.


The static configuration has the point symmetry S_6 .
 The point group associated with its full space group is D_3d.


Analysis of symmetry for dynamics (positions and initial velocities):
=====================================================================
 Subroutine PRICEL returns following result:
 
  LATTYP: Found a trigonal (rhomboedric) cell.
 ALAT       =     5.4297801492
 COS(alpha) =     0.5700456062
  
  Lattice vectors:
  
 A1 = (  -2.5175449649,  -1.4535109070,  -4.5860425054)
 A2 = (  -0.0000025175,   2.9070174535,  -4.5860287473)
 A3 = (   2.5175474825,  -1.4535065465,  -4.5860287473)
 
   3 primitive cells build up your supercell.
 

 Routine SETGRP: Setting up the symmetry group for a 
 hexagonal supercell.


 Subroutine GETGRP returns: Found 12 space group operations
 (whereof  6 operations were pure point group operations)
 out of a pool of 24 trial point group operations.


The dynamic configuration has the point symmetry S_6 .
 The point group associated with its full space group is D_3d.


Analysis of structural, dynamic, and magnetic symmetry:
=====================================================================
 Subroutine PRICEL returns following result:
 
  LATTYP: Found a trigonal (rhomboedric) cell.
 ALAT       =     5.4297801492
 COS(alpha) =     0.5700456062
  
  Lattice vectors:
  
 A1 = (  -2.5175449649,  -1.4535109070,  -4.5860425054)
 A2 = (  -0.0000025175,   2.9070174535,  -4.5860287473)
 A3 = (   2.5175474825,  -1.4535065465,  -4.5860287473)
 
   3 primitive cells build up your supercell.
 

 Routine SETGRP: Setting up the symmetry group for a 
 hexagonal supercell.


 Subroutine GETGRP returns: Found 12 space group operations
 (whereof  6 operations were pure point group operations)
 out of a pool of 24 trial point group operations.


The magnetic configuration has the point symmetry S_6 .
 The point group associated with its full space group is D_3d.


 Subroutine INISYM returns: Found 12 space group operations
 (whereof  6 operations are pure point group operations),
 and found     3 'primitive' translations

 
 
 KPOINTS: pymatgen with grid density = 2464 / numb

Automatic generation of k-mesh.
Space group operators:
 irot       det(A)        alpha          n_x          n_y          n_z        tau_x        tau_y        tau_z
    1     1.000000     0.000000     1.000000     0.000000     0.000000     0.000000     0.000000     0.000000
    2    -1.000000     0.000000     1.000000     0.000000     0.000000     0.000000     0.000000     0.000000
    3     1.000000   120.000000     0.000000     0.000000    -1.000000     0.000000     0.000000     0.000000
    4    -1.000000   120.000000     0.000000     0.000000    -1.000000     0.000000     0.000000     0.000000
    5     1.000000   120.000000     0.000000     0.000000     1.000000     0.000000     0.000000     0.000000
    6    -1.000000   120.000000     0.000000     0.000000     1.000000     0.000000     0.000000     0.000000
    7     1.000000   180.000000     1.000000     0.000000     0.000000     0.000001    -0.000000    -0.500000
    8    -1.000000   180.000000     1.000000     0.000000     0.000000     0.000001    -0.000000    -0.500000
    9     1.000000   180.000000     0.500000    -0.866025     0.000000     0.000000     0.000000    -0.500000
   10    -1.000000   180.000000     0.500000    -0.866025     0.000000     0.000000     0.000000    -0.500000
   11     1.000000   180.000000    -0.500000    -0.866025     0.000000     0.000000     0.000000    -0.500000
   12    -1.000000   180.000000    -0.500000    -0.866025     0.000000     0.000000     0.000000    -0.500000
 
 Subroutine IBZKPT returns following result:
 ===========================================
 
 Found     14 irreducible k-points:
 
 Following reciprocal coordinates:
            Coordinates               Weight
  0.000000  0.000000  0.000000      1.000000
  0.166667  0.000000  0.000000      6.000000
  0.333333  0.000000  0.000000      6.000000
  0.500000  0.000000  0.000000      3.000000
  0.166667  0.166667  0.000000      6.000000
  0.333333  0.166667  0.000000     12.000000
  0.333333  0.333333  0.000000      2.000000
  0.000000  0.000000  0.500000      1.000000
  0.166667  0.000000  0.500000      6.000000
  0.333333  0.000000  0.500000      6.000000
  0.500000  0.000000  0.500000      3.000000
  0.166667  0.166667  0.500000      6.000000
  0.333333  0.166667  0.500000     12.000000
  0.333333  0.333333  0.500000      2.000000
 
 Following cartesian coordinates:
            Coordinates               Weight
  0.000000  0.000000  0.000000      1.000000
  0.033101  0.019111  0.000000      6.000000
  0.066202  0.038222  0.000000      6.000000
  0.099303  0.057333  0.000000      3.000000
  0.033101  0.057333  0.000000      6.000000
  0.066202  0.076443  0.000000     12.000000
  0.066202  0.114665  0.000000      2.000000
  0.000000  0.000000  0.036342      1.000000
  0.033101  0.019111  0.036342      6.000000
  0.066202  0.038222  0.036342      6.000000
  0.099303  0.057333  0.036342      3.000000
  0.033101  0.057333  0.036342      6.000000
  0.066202  0.076443  0.036342     12.000000
  0.066202  0.114665  0.036342      2.000000
 
 TETIRR: Found     71 inequivalent tetrahedra from      432


--------------------------------------------------------------------------------------------------------




 Dimension of arrays:
   k-points           NKPTS =     14   k-points in BZ     NKDIM =     14   number of bands    NBANDS=    204
   number of dos      NEDOS =    301   number of ions     NIONS =     30
   non local maximal  LDIM  =      6   non local SUM 2l+1 LMDIM =     18
   total plane-waves  NPLWV = 211680
   max r-space proj   IRMAX =   7149   max aug-charges    IRDMAX=  20952
   dimension x,y,z NGX =    42 NGY =   42 NGZ =  120
   dimension x,y,z NGXF=    84 NGYF=   84 NGZF=  240
   support grid    NGXF=    84 NGYF=   84 NGZF=  240
   ions per type =              12  18
   NGX,Y,Z   is equivalent  to a cutoff of  13.87, 13.87, 14.50 a.u.
   NGXF,Y,Z  is equivalent  to a cutoff of  27.73, 27.73, 29.00 a.u.

 SYSTEM =  unknown system                          
 POSCAR =  Fe12 O18                                

 Startparameter for this run:
   NWRITE =      2    write-flag & timer
   PREC   = accura    normal or accurate (medium, high low for compatibility)
   ISTART =      0    job   : 0-new  1-cont  2-samecut
   ICHARG =      2    charge: 1-file 2-atom 10-const
   ISPIN  =      2    spin polarized calculation?
   LNONCOLLINEAR =      F non collinear calculations
   LSORBIT =      F    spin-orbit coupling
   INIWAV =      1    electr: 0-lowe 1-rand  2-diag
   LASPH  =      F    aspherical Exc in radial PAW
   METAGGA=      F    non-selfconsistent MetaGGA calc.

 Electronic Relaxation 1
   ENCUT  =  640.0 eV  47.04 Ry    6.86 a.u.  10.39 10.39 28.38*2*pi/ulx,y,z
   ENINI  =  640.0     initial cutoff
   ENAUG  =  605.4 eV  augmentation charge cutoff
   NELM   =    100;   NELMIN=  2; NELMDL= -5     # of ELM steps 
   EDIFF  = 0.1E-06   stopping-criterion for ELM
   LREAL  =      T    real-space projection
   NLSPLINE    = F    spline interpolate recip. space projectors
   LCOMPAT=      F    compatible to vasp.4.4
   GGA_COMPAT  = T    GGA compatible to vasp.4.4-vasp.4.6
   LMAXPAW     = -100 max onsite density
   LMAXMIX     =    2 max onsite mixed and CHGCAR
   VOSKOWN=      0    Vosko Wilk Nusair interpolation
   ROPT   =   -0.00025  -0.00025
 Ionic relaxation
   EDIFFG = 0.1E-05   stopping-criterion for IOM
   NSW    =      0    number of steps for IOM
   NBLOCK =      1;   KBLOCK =      1    inner block; outer block 
   IBRION =     -1    ionic relax: 0-MD 1-quasi-New 2-CG
   NFREE  =      0    steps in history (QN), initial steepest desc. (CG)
   ISIF   =      3    stress and relaxation
   IWAVPR =     10    prediction:  0-non 1-charg 2-wave 3-comb
   ISYM   =      2    0-nonsym 1-usesym 2-fastsym
   LCORR  =      T    Harris-Foulkes like correction to forces

   POTIM  = 0.5000    time-step for ionic-motion
   TEIN   =    0.0    initial temperature
   TEBEG  =    0.0;   TEEND  =   0.0 temperature during run
   SMASS  =  -3.00    Nose mass-parameter (am)
   estimated Nose-frequenzy (Omega)   =  0.10E-29 period in steps =****** mass=  -0.579E-27a.u.
   SCALEE = 1.0000    scale energy and forces
   NPACO  =    256;   APACO  = 16.0  distance and # of slots for P.C.
   PSTRESS=    0.0 pullay stress

  Mass of Ions in am
   POMASS =  55.85 16.00
  Ionic Valenz
   ZVAL   =  14.00  6.00
  Atomic Wigner-Seitz radii
   RWIGS  =  -1.00 -1.00
  virtual crystal weights 
   VCA    =   1.00  1.00
   NELECT =     276.0000    total number of electrons
   NUPDOWN=      -1.0000    fix difference up-down

 DOS related values:
   EMIN   =  10.00;   EMAX   =-10.00  energy-range for DOS
   EFERMI =   0.00
   ISMEAR =    -5;   SIGMA  =   0.05  broadening in eV -4-tet -1-fermi 0-gaus

 Electronic relaxation 2 (details)
   IALGO  =     38    algorithm
   LDIAG  =      T    sub-space diagonalisation (order eigenvalues)
   LSUBROT=      F    optimize rotation matrix (better conditioning)
   TURBO    =      0    0=normal 1=particle mesh
   IRESTART =      0    0=no restart 2=restart with 2 vectors
   NREBOOT  =      0    no. of reboots
   NMIN     =      0    reboot dimension
   EREF     =   0.00    reference energy to select bands
   IMIX   =      4    mixing-type and parameters
     AMIX     =   0.40;   BMIX     =  1.00
     AMIX_MAG =   1.60;   BMIX_MAG =  1.00
     AMIN     =   0.10
     WC   =   100.;   INIMIX=   1;  MIXPRE=   1;  MAXMIX= -45

 Intra band minimization:
   WEIMIN = 0.0000     energy-eigenvalue tresh-hold
   EBREAK =  0.12E-09  absolut break condition
   DEPER  =   0.30     relativ break condition  

   TIME   =   0.40     timestep for ELM

  volume/ion in A,a.u.               =      10.07        67.95
  Fermi-wavevector in a.u.,A,eV,Ry     =   1.588581  3.001983 34.335534  2.523591
  Thomas-Fermi vector in A             =   2.687563
 
 Write flags
   LWAVE        =      F    write WAVECAR
   LDOWNSAMPLE  =      F    k-point downsampling of WAVECAR
   LCHARG       =      F    write CHGCAR
   LVTOT        =      F    write LOCPOT, total local potential
   LVHAR        =      F    write LOCPOT, Hartree potential only
   LELF         =      F    write electronic localiz. function (ELF)
   LORBIT       =     11    0 simple, 1 ext, 2 COOP (PROOUT), +10 PAW based schemes


 Dipole corrections
   LMONO  =      F    monopole corrections only (constant potential shift)
   LDIPOL =      F    correct potential (dipole corrections)
   IDIPOL =      0    1-x, 2-y, 3-z, 4-all directions 
   EPSILON=  1.0000000 bulk dielectric constant

 Exchange correlation treatment:
   GGA     =    --    GGA type
   LEXCH   =     8    internal setting for exchange type
   VOSKOWN=      0    Vosko Wilk Nusair interpolation
   LHFCALC =     F    Hartree Fock is set to
   LHFONE  =     F    Hartree Fock one center treatment
   AEXX    =    0.0000 exact exchange contribution

 Linear response parameters
   LEPSILON=     F    determine dielectric tensor
   LRPA    =     F    only Hartree local field effects (RPA)
   LNABLA  =     F    use nabla operator in PAW spheres
   LVEL    =     F    velocity operator in full k-point grid
   LINTERFAST=   F  fast interpolation
   KINTER  =     0    interpolate to denser k-point grid
   CSHIFT  =0.1000    complex shift for real part using Kramers Kronig
   OMEGAMAX=  -1.0    maximum frequency
   DEG_THRESHOLD= 0.2000000E-02 threshold for treating states as degnerate
   RTIME   =   -0.100 relaxation time in fs
  (WPLASMAI=    0.000 imaginary part of plasma frequency in eV, 0.658/RTIME)
   DFIELD  = 0.0000000 0.0000000 0.0000000 field for delta impulse in time
 
 Orbital magnetization related:
   ORBITALMAG=     F  switch on orbital magnetization
   LCHIMAG   =     F  perturbation theory with respect to B field
   DQ        =  0.001000  dq finite difference perturbation B field
   LLRAUG    =     F  two centre corrections for induced B field



--------------------------------------------------------------------------------------------------------


 Static calculation
 charge density and potential will be updated during run
 spin polarized calculation
 Variant of blocked Davidson
 Davidson routine will perform the subspace rotation
 perform sub-space diagonalisation
    after iterative eigenvector-optimisation
 modified Broyden-mixing scheme, WC =      100.0
 initial mixing is a Kerker type mixing with AMIX =  0.4000 and BMIX =      1.0000
 Hartree-type preconditioning will be used
 using additional bands           66
 real space projection scheme for non local part
 use partial core corrections
 calculate Harris-corrections to forces 
   (improved forces if not selfconsistent)
 use gradient corrections 
 use of overlap-Matrix (Vanderbilt PP)
 Fermi weights with tetrahedron method with Bloechl corrections


--------------------------------------------------------------------------------------------------------


  energy-cutoff  :      640.00
  volume of cell :      302.07
      direct lattice vectors                 reciprocal lattice vectors
     5.035100000  0.000000000  0.000000000     0.198605787  0.114665118  0.000000000
    -2.517550000  4.360524000  0.000000000     0.000000000  0.229330236  0.000000000
     0.000000000  0.000000000 13.758100000     0.000000000  0.000000000  0.072684455

  length of vectors
     5.035100000  5.035099558 13.758100000     0.229330216  0.229330236  0.072684455


 
 k-points in units of 2pi/SCALE and weight: pymatgen with grid density = 2464 / numb
   0.00000000  0.00000000  0.00000000       0.014
   0.03310096  0.01911085  0.00000000       0.083
   0.06620193  0.03822171  0.00000000       0.083
   0.09930289  0.05733256  0.00000000       0.042
   0.03310096  0.05733256  0.00000000       0.083
   0.06620193  0.07644341  0.00000000       0.167
   0.06620193  0.11466512  0.00000000       0.028
   0.00000000  0.00000000  0.03634223       0.014
   0.03310096  0.01911085  0.03634223       0.083
   0.06620193  0.03822171  0.03634223       0.083
   0.09930289  0.05733256  0.03634223       0.042
   0.03310096  0.05733256  0.03634223       0.083
   0.06620193  0.07644341  0.03634223       0.167
   0.06620193  0.11466512  0.03634223       0.028
 
 k-points in reciprocal lattice and weights: pymatgen with grid density = 2464 / numb
   0.00000000  0.00000000  0.00000000       0.014
   0.16666667  0.00000000  0.00000000       0.083
   0.33333333  0.00000000  0.00000000       0.083
   0.50000000  0.00000000  0.00000000       0.042
   0.16666667  0.16666667  0.00000000       0.083
   0.33333333  0.16666667  0.00000000       0.167
   0.33333333  0.33333333  0.00000000       0.028
   0.00000000  0.00000000  0.50000000       0.014
   0.16666667  0.00000000  0.50000000       0.083
   0.33333333  0.00000000  0.50000000       0.083
   0.50000000  0.00000000  0.50000000       0.042
   0.16666667  0.16666667  0.50000000       0.083
   0.33333333  0.16666667  0.50000000       0.167
   0.33333333  0.33333333  0.50000000       0.028
 
 position of ions in fractional coordinates (direct lattice) 
   0.00000000  0.00000000  0.35532000
   0.00000000  0.00000000  0.64468000
   0.33333300  0.66666700  0.02198700
   0.66666700  0.33333300  0.68865300
   0.33333300  0.66666700  0.31134700
   0.66666700  0.33333300  0.97801300
   0.00000000  0.00000000  0.14468000
   0.00000000  0.00000000  0.85532000
   0.33333300  0.66666700  0.81134700
   0.33333300  0.66666700  0.52198700
   0.66666700  0.33333300  0.47801300
   0.66666700  0.33333300  0.18865300
   0.30618000  0.00000000  0.25000000
   0.69382000  0.00000000  0.75000000
   0.63951300  0.66666700  0.91666700
   0.97284700  0.33333300  0.58333300
   0.02715300  0.66666700  0.41666700
   0.36048700  0.33333300  0.08333300
   0.00000000  0.30618000  0.25000000
   0.00000000  0.69382000  0.75000000
   0.33333300  0.97284700  0.91666700
   0.66666700  0.63951300  0.58333300
   0.33333300  0.36048700  0.41666700
   0.66666700  0.02715300  0.08333300
   0.69382000  0.69382000  0.25000000
   0.30618000  0.30618000  0.75000000
   0.02715300  0.36048700  0.91666700
   0.63951300  0.97284700  0.41666700
   0.36048700  0.02715300  0.58333300
   0.97284700  0.63951300  0.08333300
 
 position of ions in cartesian coordinates  (Angst):
   0.00000000  0.00000000  4.88852809
   0.00000000  0.00000000  8.86957191
  -0.00000252  2.90701745  0.30249934
   2.51755252  1.45350655  9.47455684
  -0.00000252  2.90701745  4.28354316
   2.51755252  1.45350655 13.45560066
   0.00000000  0.00000000  1.99052191
   0.00000000  0.00000000 11.76757809
  -0.00000252  2.90701745 11.16259316
  -0.00000252  2.90701745  7.18154934
   2.51755252  1.45350655  6.57655066
   2.51755252  1.45350655  2.59550684
   1.54164692  0.00000000  3.43952500
   3.49345308  0.00000000 10.31857500
   1.54164440  2.90701745 12.61159625
   4.05919944  1.45350655  8.02555375
  -1.54164944  2.90701745  5.73254625
   0.97590560  1.45350655  1.14650375
  -0.77082346  1.33510524  3.43952500
  -1.74672654  3.02541876 10.31857500
  -0.77082598  4.24212269 12.61159625
   1.74672906  2.78861178  8.02555375
   0.77082094  1.57191222  5.73254625
   3.28837598  0.11840131  1.14650375
   1.74672654  3.02541876  3.43952500
   0.77082346  1.33510524 10.31857500
  -0.77082598  1.57191222 12.61159625
   0.77082094  4.24212269  5.73254625
   1.74672906  0.11840131  8.02555375
   3.28837598  2.78861178  1.14650375
 


--------------------------------------------------------------------------------------------------------


 k-point  1 :   0.0000 0.0000 0.0000  plane waves:   11079
 k-point  2 :   0.1667 0.0000 0.0000  plane waves:   11124
 k-point  3 :   0.3333 0.0000 0.0000  plane waves:   11108
 k-point  4 :   0.5000 0.0000 0.0000  plane waves:   11096
 k-point  5 :   0.1667 0.1667 0.0000  plane waves:   11131
 k-point  6 :   0.3333 0.1667 0.0000  plane waves:   11109
 k-point  7 :   0.3333 0.3333 0.0000  plane waves:   11076
 k-point  8 :   0.0000 0.0000 0.5000  plane waves:   11084
 k-point  9 :   0.1667 0.0000 0.5000  plane waves:   11118
 k-point 10 :   0.3333 0.0000 0.5000  plane waves:   11122
 k-point 11 :   0.5000 0.0000 0.5000  plane waves:   11088
 k-point 12 :   0.1667 0.1667 0.5000  plane waves:   11116
 k-point 13 :   0.3333 0.1667 0.5000  plane waves:   11090
 k-point 14 :   0.3333 0.3333 0.5000  plane waves:   11058

 maximum and minimum number of plane-waves per node :      2806     2737

 maximum number of plane-waves:     11131
 maximum index in each direction: 
   IXMAX=   10   IYMAX=   10   IZMAX=   28
   IXMIN=  -10   IYMIN=  -10   IZMIN=  -28


 real space projection operators:
  total allocation   :      16557.19 KBytes
  max/ min on nodes  :       4305.06       3966.12


 parallel 3D FFT for wavefunctions:
    minimum data exchange during FFTs selected (reduces bandwidth)
 parallel 3D FFT for charge:
    minimum data exchange during FFTs selected (reduces bandwidth)


 total amount of memory used by VASP MPI-rank0    98071. kBytes
=======================================================================

   base      :      30000. kBytes
   nonlr-proj:       8926. kBytes
   fftplans  :       4268. kBytes
   grid      :      10944. kBytes
   one-center:        248. kBytes
   wavefun   :      43685. kBytes
 
     INWAV:  cpu time    0.0000: real time    0.0001
 Broyden mixing: mesh for mixing (old mesh)
   NGX = 21   NGY = 21   NGZ = 57
  (NGX  = 84   NGY  = 84   NGZ  =240)
  gives a total of  25137 points

 initial charge density was supplied:
 charge density of overlapping atoms calculated
 number of electron     276.0000000 magnetization      70.8000000
 keeping initial charge density in first step


--------------------------------------------------------------------------------------------------------


 Maximum index for non-local projection operator         1924
 Maximum index for augmentation-charges         1296 (set IRDMAX)


--------------------------------------------------------------------------------------------------------


 First call to EWALD:  gamma=   0.264
 Maximum number of real-space cells 4x 4x 2
 Maximum number of reciprocal cells 2x 2x 5

    FEWALD:  cpu time    0.0017: real time    0.0017


--------------------------------------- Iteration      1(   1)  ---------------------------------------


    POTLOK:  cpu time    0.0991: real time    0.0994
    SETDIJ:  cpu time    0.0133: real time    0.0134
     EDDAV:  cpu time   14.4010: real time   14.4563
 BZINTS: Fermi energy: 29.936196;276.000000 electrons
         Band energy:1544.036040;  BLOECHL correction: -0.084550
       DOS:  cpu time    0.0447: real time    0.0448
    --------------------------------------------
      LOOP:  cpu time   14.5581: real time   14.6139

 eigenvalue-minimisations  : 11544
 total energy-change (2. order) : 0.4560464E+04  (-0.1552397E+05)
 number of electron     276.0000000 magnetization      70.8000000
 augmentation part      276.0000000 magnetization      70.8000000

 Free energy of the ion-electron system (eV)
  ---------------------------------------------------
  alpha Z        PSCENC =      1362.55286497
  Ewald energy   TEWEN  =    -25513.06237826
  -Hartree energ DENC   =    -10371.14386019
  -exchange      EXHF   =         0.00000000
  -V(xc)+E(xc)   XCENC  =      1375.27779759
  PAW double counting   =     30224.59406688   -31333.39571732
  entropy T*S    EENTRO =         0.00000000
  eigenvalues    EBANDS =      1544.03604017
  atomic energy  EATOM  =     37271.60537339
  Solvation  Ediel_sol  =         0.00000000
  ---------------------------------------------------
  free energy    TOTEN  =      4560.46418723 eV

  energy without entropy =     4560.46418723  energy(sigma->0) =     4560.46418723


--------------------------------------------------------------------------------------------------------




--------------------------------------- Iteration      1(   2)  ---------------------------------------


     EDDAV:  cpu time   14.7579: real time   14.7961
 BZINTS: Fermi energy: 11.657698;276.000000 electrons
         Band energy:***********;  BLOECHL correction: -0.032720
       DOS:  cpu time    0.0473: real time    0.0474
    --------------------------------------------
      LOOP:  cpu time   14.8051: real time   14.8435

 eigenvalue-minimisations  : 11424
 total energy-change (2. order) :-0.4052570E+04  (-0.3694490E+04)
 number of electron     276.0000000 magnetization      70.8000000
 augmentation part      276.0000000 magnetization      70.8000000

 Free energy of the ion-electron system (eV)
  ---------------------------------------------------
  alpha Z        PSCENC =      1362.55286497
  Ewald energy   TEWEN  =    -25513.06237826
  -Hartree energ DENC   =    -10371.14386019
  -exchange      EXHF   =         0.00000000
  -V(xc)+E(xc)   XCENC  =      1375.27779759
  PAW double counting   =     30224.59406688   -31333.39571732
  entropy T*S    EENTRO =         0.00000000
  eigenvalues    EBANDS =     -2508.53376321
  atomic energy  EATOM  =     37271.60537339
  Solvation  Ediel_sol  =         0.00000000
  ---------------------------------------------------
  free energy    TOTEN  =       507.89438384 eV

  energy without entropy =      507.89438384  energy(sigma->0) =      507.89438384


--------------------------------------------------------------------------------------------------------




--------------------------------------- Iteration      1(   3)  ---------------------------------------


     EDDAV:  cpu time   14.8572: real time   14.9001
 BZINTS: Fermi energy:  8.705874;276.000000 electrons
         Band energy:***********;  BLOECHL correction:  0.000000
       DOS:  cpu time    0.0071: real time    0.0071
    --------------------------------------------
      LOOP:  cpu time   14.8643: real time   14.9072

 eigenvalue-minimisations  : 11832
 total energy-change (2. order) :-0.7511738E+03  (-0.6611105E+03)
 number of electron     276.0000000 magnetization      70.8000000
 augmentation part      276.0000000 magnetization      70.8000000

 Free energy of the ion-electron system (eV)
  ---------------------------------------------------
  alpha Z        PSCENC =      1362.55286497
  Ewald energy   TEWEN  =    -25513.06237826
  -Hartree energ DENC   =    -10371.14386019
  -exchange      EXHF   =         0.00000000
  -V(xc)+E(xc)   XCENC  =      1375.27779759
  PAW double counting   =     30224.59406688   -31333.39571732
  entropy T*S    EENTRO =         0.00000000
  eigenvalues    EBANDS =     -3259.70753818
  atomic energy  EATOM  =     37271.60537339
  Solvation  Ediel_sol  =         0.00000000
  ---------------------------------------------------
  free energy    TOTEN  =      -243.27939112 eV

  energy without entropy =     -243.27939112  energy(sigma->0) =     -243.27939112


--------------------------------------------------------------------------------------------------------




--------------------------------------- Iteration      1(   4)  ---------------------------------------


     EDDAV:  cpu time   15.9429: real time   15.9838
 BZINTS: Fermi energy:  8.263108;276.000000 electrons
         Band energy:***********;  BLOECHL correction:  0.000000
       DOS:  cpu time    0.0062: real time    0.0062
    --------------------------------------------
      LOOP:  cpu time   15.9491: real time   15.9900

 eigenvalue-minimisations  : 12960
 total energy-change (2. order) :-0.5058479E+02  (-0.4998173E+02)
 number of electron     276.0000000 magnetization      70.8000000
 augmentation part      276.0000000 magnetization      70.8000000

 Free energy of the ion-electron system (eV)
  ---------------------------------------------------
  alpha Z        PSCENC =      1362.55286497
  Ewald energy   TEWEN  =    -25513.06237826
  -Hartree energ DENC   =    -10371.14386019
  -exchange      EXHF   =         0.00000000
  -V(xc)+E(xc)   XCENC  =      1375.27779759
  PAW double counting   =     30224.59406688   -31333.39571732
  entropy T*S    EENTRO =         0.00000000
  eigenvalues    EBANDS =     -3310.29232644
  atomic energy  EATOM  =     37271.60537339
  Solvation  Ediel_sol  =         0.00000000
  ---------------------------------------------------
  free energy    TOTEN  =      -293.86417938 eV

  energy without entropy =     -293.86417938  energy(sigma->0) =     -293.86417938


--------------------------------------------------------------------------------------------------------




--------------------------------------- Iteration      1(   5)  ---------------------------------------


     EDDAV:  cpu time   15.5714: real time   15.6112
 BZINTS: Fermi energy:  8.323788;276.000000 electrons
         Band energy:***********;  BLOECHL correction:  0.000000
       DOS:  cpu time    0.0072: real time    0.0072
    CHARGE:  cpu time    0.5541: real time    0.5554
    MIXING:  cpu time    0.0023: real time    0.0023
    --------------------------------------------
      LOOP:  cpu time   16.1349: real time   16.1762

 eigenvalue-minimisations  : 12744
 total energy-change (2. order) :-0.5758126E+00  (-0.5741311E+00)
 number of electron     276.0000079 magnetization      67.8179418
 augmentation part      108.0209737 magnetization      47.0427714

 Broyden mixing:
  rms(total) = 0.80938E+01    rms(broyden)= 0.80937E+01
  rms(prec ) = 0.88399E+01
  weight for this iteration     100.00

 Free energy of the ion-electron system (eV)
  ---------------------------------------------------
  alpha Z        PSCENC =      1362.55286497
  Ewald energy   TEWEN  =    -25513.06237826
  -Hartree energ DENC   =    -10371.14386019
  -exchange      EXHF   =         0.00000000
  -V(xc)+E(xc)   XCENC  =      1375.27779759
  PAW double counting   =     30224.59406688   -31333.39571732
  entropy T*S    EENTRO =         0.00000000
  eigenvalues    EBANDS =     -3310.86813902
  atomic energy  EATOM  =     37271.60537339
  Solvation  Ediel_sol  =         0.00000000
  ---------------------------------------------------
  free energy    TOTEN  =      -294.43999197 eV

  energy without entropy =     -294.43999197  energy(sigma->0) =     -294.43999197


--------------------------------------------------------------------------------------------------------




--------------------------------------- Iteration      1(   6)  ---------------------------------------


    POTLOK:  cpu time    0.0950: real time    0.0954
    SETDIJ:  cpu time    0.0131: real time    0.0132
     EDDAV:  cpu time   17.8569: real time   17.9053
 BZINTS: Fermi energy:  5.535597;276.000000 electrons
         Band energy:***********;  BLOECHL correction: -0.054824
       DOS:  cpu time    0.0486: real time    0.0487
    CHARGE:  cpu time    0.5752: real time    0.5768
    MIXING:  cpu time    0.0021: real time    0.0021
    --------------------------------------------
      LOOP:  cpu time   18.5910: real time   18.6414

 eigenvalue-minimisations  : 14820
 total energy-change (2. order) : 0.5912880E+02  (-0.2532928E+02)
 number of electron     276.0000125 magnetization      62.9829000
 augmentation part      120.7294939 magnetization      54.4206280

 Broyden mixing:
  rms(total) = 0.91316E+01    rms(broyden)= 0.91313E+01
  rms(prec ) = 0.97818E+01
  weight for this iteration     100.00

 eigenvalues of (default mixing * dielectric matrix)
  average eigenvalue GAMMA=   0.3183
  0.3183

 Free energy of the ion-electron system (eV)
  ---------------------------------------------------
  alpha Z        PSCENC =      1362.55286497
  Ewald energy   TEWEN  =    -25513.06237826
  -Hartree energ DENC   =     -9965.85547468
  -exchange      EXHF   =         0.00000000
  -V(xc)+E(xc)   XCENC  =      1376.65128793
  PAW double counting   =     31436.57590194   -32503.48098620
  entropy T*S    EENTRO =         0.00000000
  eigenvalues    EBANDS =     -3700.29778364
  atomic energy  EATOM  =     37271.60537339
  Solvation  Ediel_sol  =         0.00000000
  ---------------------------------------------------
  free energy    TOTEN  =      -235.31119456 eV

  energy without entropy =     -235.31119456  energy(sigma->0) =     -235.31119456


--------------------------------------------------------------------------------------------------------




--------------------------------------- Iteration      1(   7)  ---------------------------------------


    POTLOK:  cpu time    0.0955: real time    0.0959
    SETDIJ:  cpu time    0.0132: real time    0.0132
     EDDAV:  cpu time   15.7288: real time   15.7771
 BZINTS: Fermi energy:  7.083850;276.000000 electrons
         Band energy:***********;  BLOECHL correction: -0.036201
       DOS:  cpu time    0.0485: real time    0.0487
    CHARGE:  cpu time    0.5662: real time    0.5678
    MIXING:  cpu time    0.0022: real time    0.0022
    --------------------------------------------
      LOOP:  cpu time   16.4545: real time   16.5049

 eigenvalue-minimisations  : 12240
 total energy-change (2. order) : 0.2370132E+02  (-0.1139213E+02)
 number of electron     276.0000092 magnetization      58.7897596
 augmentation part      109.3609904 magnetization      40.3010222

 Broyden mixing:
  rms(total) = 0.43690E+01    rms(broyden)= 0.43688E+01
  rms(prec ) = 0.45292E+01
  weight for this iteration     100.00

 eigenvalues of (default mixing * dielectric matrix)
  average eigenvalue GAMMA=   0.6796
  1.0293  0.3299

 Free energy of the ion-electron system (eV)
  ---------------------------------------------------
  alpha Z        PSCENC =      1362.55286497
  Ewald energy   TEWEN  =    -25513.06237826
  -Hartree energ DENC   =    -10207.91941236
  -exchange      EXHF   =         0.00000000
  -V(xc)+E(xc)   XCENC  =      1372.46574109
  PAW double counting   =     32869.76126327   -33998.22807858
  entropy T*S    EENTRO =         0.00000000
  eigenvalues    EBANDS =     -3368.78524825
  atomic energy  EATOM  =     37271.60537339
  Solvation  Ediel_sol  =         0.00000000
  ---------------------------------------------------
  free energy    TOTEN  =      -211.60987474 eV

  energy without entropy =     -211.60987474  energy(sigma->0) =     -211.60987474


--------------------------------------------------------------------------------------------------------




--------------------------------------- Iteration      1(   8)  ---------------------------------------


    POTLOK:  cpu time    0.0937: real time    0.0943
    SETDIJ:  cpu time    0.0131: real time    0.0131
     EDDAV:  cpu time   15.2628: real time   15.3103
 BZINTS: Fermi energy:  6.450748;276.000000 electrons
         Band energy:***********;  BLOECHL correction: -0.034120
       DOS:  cpu time    0.0485: real time    0.0486
    CHARGE:  cpu time    0.5622: real time    0.5637
    MIXING:  cpu time    0.0022: real time    0.0023
    --------------------------------------------
      LOOP:  cpu time   15.9825: real time   16.0322

 eigenvalue-minimisations  : 12096
 total energy-change (2. order) :-0.6691663E+01  (-0.2132302E+01)
 number of electron     276.0000095 magnetization      51.9014181
 augmentation part      111.2660428 magnetization      34.9900557

 Broyden mixing:
  rms(total) = 0.26427E+01    rms(broyden)= 0.26427E+01
  rms(prec ) = 0.27027E+01
  weight for this iteration     100.00

 eigenvalues of (default mixing * dielectric matrix)
  average eigenvalue GAMMA=   1.0815
  2.2762  0.5868  0.3816

 Free energy of the ion-electron system (eV)
  ---------------------------------------------------
  alpha Z        PSCENC =      1362.55286497
  Ewald energy   TEWEN  =    -25513.06237826
  -Hartree energ DENC   =    -10073.30523529
  -exchange      EXHF   =         0.00000000
  -V(xc)+E(xc)   XCENC  =      1366.45220142
  PAW double counting   =     34233.07394105   -35373.36983675
  entropy T*S    EENTRO =         0.00000000
  eigenvalues    EBANDS =     -3492.24846819
  atomic energy  EATOM  =     37271.60537339
  Solvation  Ediel_sol  =         0.00000000
  ---------------------------------------------------
  free energy    TOTEN  =      -218.30153767 eV

  energy without entropy =     -218.30153767  energy(sigma->0) =     -218.30153767


--------------------------------------------------------------------------------------------------------




--------------------------------------- Iteration      1(   9)  ---------------------------------------


    POTLOK:  cpu time    0.0931: real time    0.0934
    SETDIJ:  cpu time    0.0130: real time    0.0131
     EDDAV:  cpu time   15.5625: real time   15.6019
 BZINTS: Fermi energy:  5.875119;276.000000 electrons
         Band energy:***********;  BLOECHL correction: -0.039274
       DOS:  cpu time    0.0469: real time    0.0470
    CHARGE:  cpu time    0.5680: real time    0.5695
    MIXING:  cpu time    0.0024: real time    0.0024
    --------------------------------------------
      LOOP:  cpu time   16.2858: real time   16.3273

 eigenvalue-minimisations  : 12612
 total energy-change (2. order) :-0.4227960E+01  (-0.8278882E+00)
 number of electron     276.0000105 magnetization      50.9217099
 augmentation part      114.1735984 magnetization      37.8453229

 Broyden mixing:
  rms(total) = 0.27399E+01    rms(broyden)= 0.27399E+01
  rms(prec ) = 0.28735E+01
  weight for this iteration     100.00

 eigenvalues of (default mixing * dielectric matrix)
  average eigenvalue GAMMA=   1.1009
  2.8498  0.8040  0.3750  0.3750

 Free energy of the ion-electron system (eV)
  ---------------------------------------------------
  alpha Z        PSCENC =      1362.55286497
  Ewald energy   TEWEN  =    -25513.06237826
  -Hartree energ DENC   =     -9932.32280660
  -exchange      EXHF   =         0.00000000
  -V(xc)+E(xc)   XCENC  =      1362.32653874
  PAW double counting   =     36532.70784996   -37701.86477771
  entropy T*S    EENTRO =         0.00000000
  eigenvalues    EBANDS =     -3604.47216259
  atomic energy  EATOM  =     37271.60537339
  Solvation  Ediel_sol  =         0.00000000
  ---------------------------------------------------
  free energy    TOTEN  =      -222.52949811 eV

  energy without entropy =     -222.52949811  energy(sigma->0) =     -222.52949811


--------------------------------------------------------------------------------------------------------




--------------------------------------- Iteration      1(  10)  ---------------------------------------


    POTLOK:  cpu time    0.0943: real time    0.0946
    SETDIJ:  cpu time    0.0134: real time    0.0135
     EDDAV:  cpu time   15.3598: real time   15.3986
 BZINTS: Fermi energy:  5.958001;276.000000 electrons
         Band energy:***********;  BLOECHL correction: -0.037328
       DOS:  cpu time    0.0501: real time    0.0502
    CHARGE:  cpu time    0.5681: real time    0.5696
    MIXING:  cpu time    0.0025: real time    0.0025
    --------------------------------------------
      LOOP:  cpu time   16.0882: real time   16.1290

 eigenvalue-minimisations  : 12564
 total energy-change (2. order) : 0.3953732E+00  (-0.2481904E+00)
 number of electron     276.0000104 magnetization      50.6098027
 augmentation part      113.4296928 magnetization      37.3102238

 Broyden mixing:
  rms(total) = 0.18619E+01    rms(broyden)= 0.18619E+01
  rms(prec ) = 0.19734E+01
  weight for this iteration     100.00

 eigenvalues of (default mixing * dielectric matrix)
  average eigenvalue GAMMA=   1.0196
  2.6161  0.3736  0.7704  0.6690  0.6690

 Free energy of the ion-electron system (eV)
  ---------------------------------------------------
  alpha Z        PSCENC =      1362.55286497
  Ewald energy   TEWEN  =    -25513.06237826
  -Hartree energ DENC   =     -9948.88853299
  -exchange      EXHF   =         0.00000000
  -V(xc)+E(xc)   XCENC  =      1360.89908583
  PAW double counting   =     36553.15597417   -37725.47730695
  entropy T*S    EENTRO =         0.00000000
  eigenvalues    EBANDS =     -3582.91920510
  atomic energy  EATOM  =     37271.60537339
  Solvation  Ediel_sol  =         0.00000000
  ---------------------------------------------------
  free energy    TOTEN  =      -222.13412494 eV

  energy without entropy =     -222.13412494  energy(sigma->0) =     -222.13412494


--------------------------------------------------------------------------------------------------------




--------------------------------------- Iteration      1(  11)  ---------------------------------------


    POTLOK:  cpu time    0.0955: real time    0.0960
    SETDIJ:  cpu time    0.0132: real time    0.0132
     EDDAV:  cpu time   17.2637: real time   17.3088
 BZINTS: Fermi energy:  6.019994;276.000000 electrons
         Band energy:***********;  BLOECHL correction: -0.034043
       DOS:  cpu time    0.0500: real time    0.0501
    CHARGE:  cpu time    0.5663: real time    0.5681
    MIXING:  cpu time    0.0026: real time    0.0026
    --------------------------------------------
      LOOP:  cpu time   17.9912: real time   18.0388

 eigenvalue-minimisations  : 14232
 total energy-change (2. order) : 0.5723261E+00  (-0.2377713E-01)
 number of electron     276.0000102 magnetization      49.3015693
 augmentation part      113.0054725 magnetization      35.6133692

 Broyden mixing:
  rms(total) = 0.12154E+01    rms(broyden)= 0.12154E+01
  rms(prec ) = 0.12890E+01
  weight for this iteration     100.00

 eigenvalues of (default mixing * dielectric matrix)
  average eigenvalue GAMMA=   1.0458
  2.5831  0.9731  0.9731  0.3786  0.7991  0.5677

 Free energy of the ion-electron system (eV)
  ---------------------------------------------------
  alpha Z        PSCENC =      1362.55286497
  Ewald energy   TEWEN  =    -25513.06237826
  -Hartree energ DENC   =     -9960.08716529
  -exchange      EXHF   =         0.00000000
  -V(xc)+E(xc)   XCENC  =      1360.21916580
  PAW double counting   =     36382.24981669   -37552.55784293
  entropy T*S    EENTRO =         0.00000000
  eigenvalues    EBANDS =     -3572.48163324
  atomic energy  EATOM  =     37271.60537339
  Solvation  Ediel_sol  =         0.00000000
  ---------------------------------------------------
  free energy    TOTEN  =      -221.56179886 eV

  energy without entropy =     -221.56179886  energy(sigma->0) =     -221.56179886


--------------------------------------------------------------------------------------------------------




--------------------------------------- Iteration      1(  12)  ---------------------------------------


    POTLOK:  cpu time    0.0949: real time    0.0954
    SETDIJ:  cpu time    0.0132: real time    0.0132
     EDDAV:  cpu time   17.9725: real time   18.0202
 BZINTS: Fermi energy:  6.080241;276.000000 electrons
         Band energy:***********;  BLOECHL correction: -0.033451
       DOS:  cpu time    0.0484: real time    0.0485
    CHARGE:  cpu time    0.5652: real time    0.5665
    MIXING:  cpu time    0.0026: real time    0.0026
    --------------------------------------------
      LOOP:  cpu time   18.6969: real time   18.7465

 eigenvalue-minimisations  : 15240
 total energy-change (2. order) : 0.2006048E+00  (-0.1955161E-01)
 number of electron     276.0000101 magnetization      46.8591732
 augmentation part      112.6860002 magnetization      33.0711156

 Broyden mixing:
  rms(total) = 0.84571E+00    rms(broyden)= 0.84571E+00
  rms(prec ) = 0.88701E+00
  weight for this iteration     100.00

 eigenvalues of (default mixing * dielectric matrix)
  average eigenvalue GAMMA=   1.0969
  2.1027  1.7582  1.4178  0.3772  0.7506  0.6359  0.6359

 Free energy of the ion-electron system (eV)
  ---------------------------------------------------
  alpha Z        PSCENC =      1362.55286497
  Ewald energy   TEWEN  =    -25513.06237826
  -Hartree energ DENC   =     -9973.24157576
  -exchange      EXHF   =         0.00000000
  -V(xc)+E(xc)   XCENC  =      1359.58908800
  PAW double counting   =     36267.37156639   -37436.64782380
  entropy T*S    EENTRO =         0.00000000
  eigenvalues    EBANDS =     -3559.52830900
  atomic energy  EATOM  =     37271.60537339
  Solvation  Ediel_sol  =         0.00000000
  ---------------------------------------------------
  free energy    TOTEN  =      -221.36119408 eV

  energy without entropy =     -221.36119408  energy(sigma->0) =     -221.36119408


--------------------------------------------------------------------------------------------------------




--------------------------------------- Iteration      1(  13)  ---------------------------------------


    POTLOK:  cpu time    0.0947: real time    0.0976
    SETDIJ:  cpu time    0.0135: real time    0.0135
     EDDAV:  cpu time   16.8056: real time   16.8502
 BZINTS: Fermi energy:  6.140906;276.000000 electrons
         Band energy:***********;  BLOECHL correction: -0.034454
       DOS:  cpu time    0.0504: real time    0.0505
    CHARGE:  cpu time    0.5666: real time    0.5683
    MIXING:  cpu time    0.0025: real time    0.0025
    --------------------------------------------
      LOOP:  cpu time   17.5333: real time   17.5826

 eigenvalue-minimisations  : 13908
 total energy-change (2. order) : 0.4164537E-02  (-0.1130912E-01)
 number of electron     276.0000101 magnetization      43.9391029
 augmentation part      112.4100226 magnetization      30.3944224

 Broyden mixing:
  rms(total) = 0.46399E+00    rms(broyden)= 0.46398E+00
  rms(prec ) = 0.48716E+00
  weight for this iteration     100.00

 eigenvalues of (default mixing * dielectric matrix)
  average eigenvalue GAMMA=   1.3974
  3.4466  3.4466  0.3775  0.9304  0.9304  0.7233  0.7233  0.6013

 Free energy of the ion-electron system (eV)
  ---------------------------------------------------
  alpha Z        PSCENC =      1362.55286497
  Ewald energy   TEWEN  =    -25513.06237826
  -Hartree energ DENC   =     -9991.46256425
  -exchange      EXHF   =         0.00000000
  -V(xc)+E(xc)   XCENC  =      1358.76716940
  PAW double counting   =     36037.05741298   -37203.29663666
  entropy T*S    EENTRO =         0.00000000
  eigenvalues    EBANDS =     -3543.51827110
  atomic energy  EATOM  =     37271.60537339
  Solvation  Ediel_sol  =         0.00000000
  ---------------------------------------------------
  free energy    TOTEN  =      -221.35702954 eV

  energy without entropy =     -221.35702954  energy(sigma->0) =     -221.35702954


--------------------------------------------------------------------------------------------------------




--------------------------------------- Iteration      1(  14)  ---------------------------------------


    POTLOK:  cpu time    0.0941: real time    0.0945
    SETDIJ:  cpu time    0.0132: real time    0.0132
     EDDAV:  cpu time   18.2002: real time   18.2499
 BZINTS: Fermi energy:  6.173800;276.000000 electrons
         Band energy:***********;  BLOECHL correction: -0.032751
       DOS:  cpu time    0.0472: real time    0.0474
    CHARGE:  cpu time    0.5638: real time    0.5656
    MIXING:  cpu time    0.0029: real time    0.0029
    --------------------------------------------
      LOOP:  cpu time   18.9213: real time   18.9734

 eigenvalue-minimisations  : 15012
 total energy-change (2. order) :-0.4597657E-01  (-0.1583007E-01)
 number of electron     276.0000100 magnetization      43.0364455
 augmentation part      112.2227475 magnetization      29.8762847

 Broyden mixing:
  rms(total) = 0.17550E+00    rms(broyden)= 0.17549E+00
  rms(prec ) = 0.18270E+00
  weight for this iteration     100.00

 eigenvalues of (default mixing * dielectric matrix)
  average eigenvalue GAMMA=   1.5085
  5.3680  2.7764  1.2328  0.3775  0.8435  0.8435  0.8801  0.6275  0.6275

 Free energy of the ion-electron system (eV)
  ---------------------------------------------------
  alpha Z        PSCENC =      1362.55286497
  Ewald energy   TEWEN  =    -25513.06237826
  -Hartree energ DENC   =    -10004.24220534
  -exchange      EXHF   =         0.00000000
  -V(xc)+E(xc)   XCENC  =      1357.67086808
  PAW double counting   =     35834.97571551   -36998.18259671
  entropy T*S    EENTRO =         0.00000000
  eigenvalues    EBANDS =     -3532.72064774
  atomic energy  EATOM  =     37271.60537339
  Solvation  Ediel_sol  =         0.00000000
  ---------------------------------------------------
  free energy    TOTEN  =      -221.40300611 eV

  energy without entropy =     -221.40300611  energy(sigma->0) =     -221.40300611


--------------------------------------------------------------------------------------------------------




--------------------------------------- Iteration      1(  15)  ---------------------------------------


    POTLOK:  cpu time    0.0936: real time    0.0947
    SETDIJ:  cpu time    0.0131: real time    0.0132
     EDDAV:  cpu time   15.3317: real time   15.3786
 BZINTS: Fermi energy:  6.158396;276.000000 electrons
         Band energy:***********;  BLOECHL correction: -0.033014
       DOS:  cpu time    0.0481: real time    0.0483
    CHARGE:  cpu time    0.5671: real time    0.5684
    MIXING:  cpu time    0.0029: real time    0.0029
    --------------------------------------------
      LOOP:  cpu time   16.0566: real time   16.1060

 eigenvalue-minimisations  : 12420
 total energy-change (2. order) :-0.1874056E-01  (-0.6464552E-02)
 number of electron     276.0000100 magnetization      42.6062427
 augmentation part      112.2799580 magnetization      29.6218771

 Broyden mixing:
  rms(total) = 0.14109E+00    rms(broyden)= 0.14109E+00
  rms(prec ) = 0.14958E+00
  weight for this iteration     100.00

 eigenvalues of (default mixing * dielectric matrix)
  average eigenvalue GAMMA=   1.5457
  6.1113  2.8489  1.3642  1.0767  0.3775  0.8474  0.8474  0.6939  0.6939  0.5957

 Free energy of the ion-electron system (eV)
  ---------------------------------------------------
  alpha Z        PSCENC =      1362.55286497
  Ewald energy   TEWEN  =    -25513.06237826
  -Hartree energ DENC   =    -10002.64078007
  -exchange      EXHF   =         0.00000000
  -V(xc)+E(xc)   XCENC  =      1357.17553235
  PAW double counting   =     35823.99471885   -36986.85238943
  entropy T*S    EENTRO =         0.00000000
  eigenvalues    EBANDS =     -3534.19468847
  atomic energy  EATOM  =     37271.60537339
  Solvation  Ediel_sol  =         0.00000000
  ---------------------------------------------------
  free energy    TOTEN  =      -221.42174667 eV

  energy without entropy =     -221.42174667  energy(sigma->0) =     -221.42174667


--------------------------------------------------------------------------------------------------------




--------------------------------------- Iteration      1(  16)  ---------------------------------------


    POTLOK:  cpu time    0.0937: real time    0.0940
    SETDIJ:  cpu time    0.0131: real time    0.0132
     EDDAV:  cpu time   17.3238: real time   17.3768
 BZINTS: Fermi energy:  6.180358;276.000000 electrons
         Band energy:***********;  BLOECHL correction: -0.032872
       DOS:  cpu time    0.0459: real time    0.0460
    CHARGE:  cpu time    0.5671: real time    0.5688
    MIXING:  cpu time    0.0032: real time    0.0032
    --------------------------------------------
      LOOP:  cpu time   18.0468: real time   18.1020

 eigenvalue-minimisations  : 14208
 total energy-change (2. order) : 0.5161355E-02  (-0.9426244E-03)
 number of electron     276.0000100 magnetization      42.4779733
 augmentation part      112.1868812 magnetization      29.4896398

 Broyden mixing:
  rms(total) = 0.34910E-01    rms(broyden)= 0.34905E-01
  rms(prec ) = 0.36409E-01
  weight for this iteration     100.00

 eigenvalues of (default mixing * dielectric matrix)
  average eigenvalue GAMMA=   1.5344
  6.2902  2.7891  1.3102  1.3102  1.1097  0.3775  0.8116  0.8116  0.7303  0.7303
  0.6080

 Free energy of the ion-electron system (eV)
  ---------------------------------------------------
  alpha Z        PSCENC =      1362.55286497
  Ewald energy   TEWEN  =    -25513.06237826
  -Hartree energ DENC   =    -10007.35885519
  -exchange      EXHF   =         0.00000000
  -V(xc)+E(xc)   XCENC  =      1357.07285794
  PAW double counting   =     35782.71861422   -36945.50066950
  entropy T*S    EENTRO =         0.00000000
  eigenvalues    EBANDS =     -3529.44439288
  atomic energy  EATOM  =     37271.60537339
  Solvation  Ediel_sol  =         0.00000000
  ---------------------------------------------------
  free energy    TOTEN  =      -221.41658531 eV

  energy without entropy =     -221.41658531  energy(sigma->0) =     -221.41658531


--------------------------------------------------------------------------------------------------------




--------------------------------------- Iteration      1(  17)  ---------------------------------------


    POTLOK:  cpu time    0.0953: real time    0.0958
    SETDIJ:  cpu time    0.0136: real time    0.0137
     EDDAV:  cpu time   15.3118: real time   15.3542
 BZINTS: Fermi energy:  6.181238;276.000000 electrons
         Band energy:***********;  BLOECHL correction: -0.032822
       DOS:  cpu time    0.0469: real time    0.0470
    CHARGE:  cpu time    0.5702: real time    0.5715
    MIXING:  cpu time    0.0034: real time    0.0034
    --------------------------------------------
      LOOP:  cpu time   16.0413: real time   16.0856

 eigenvalue-minimisations  : 12324
 total energy-change (2. order) :-0.6937166E-03  (-0.4566395E-03)
 number of electron     276.0000100 magnetization      42.3843093
 augmentation part      112.1840650 magnetization      29.4094764

 Broyden mixing:
  rms(total) = 0.18508E-01    rms(broyden)= 0.18507E-01
  rms(prec ) = 0.19094E-01
  weight for this iteration     100.00

 eigenvalues of (default mixing * dielectric matrix)
  average eigenvalue GAMMA=   1.5584
  6.4805  2.7636  2.4535  1.0756  1.0756  0.3775  0.8904  0.8904  0.7185  0.7185
  0.6034  0.6540

 Free energy of the ion-electron system (eV)
  ---------------------------------------------------
  alpha Z        PSCENC =      1362.55286497
  Ewald energy   TEWEN  =    -25513.06237826
  -Hartree energ DENC   =    -10007.03846097
  -exchange      EXHF   =         0.00000000
  -V(xc)+E(xc)   XCENC  =      1357.01315933
  PAW double counting   =     35802.90785036   -36966.25008689
  entropy T*S    EENTRO =         0.00000000
  eigenvalues    EBANDS =     -3529.14560095
  atomic energy  EATOM  =     37271.60537339
  Solvation  Ediel_sol  =         0.00000000
  ---------------------------------------------------
  free energy    TOTEN  =      -221.41727903 eV

  energy without entropy =     -221.41727903  energy(sigma->0) =     -221.41727903


--------------------------------------------------------------------------------------------------------




--------------------------------------- Iteration      1(  18)  ---------------------------------------


    POTLOK:  cpu time    0.0971: real time    0.0978
    SETDIJ:  cpu time    0.0138: real time    0.0139
     EDDAV:  cpu time   17.1675: real time   17.2146
 BZINTS: Fermi energy:  6.181555;276.000000 electrons
         Band energy:***********;  BLOECHL correction: -0.032949
       DOS:  cpu time    0.0448: real time    0.0449
    CHARGE:  cpu time    0.5711: real time    0.5725
    MIXING:  cpu time    0.0033: real time    0.0033
    --------------------------------------------
      LOOP:  cpu time   17.8976: real time   17.9469

 eigenvalue-minimisations  : 14088
 total energy-change (2. order) :-0.2395089E-03  (-0.2127901E-04)
 number of electron     276.0000100 magnetization      42.3323697
 augmentation part      112.1796869 magnetization      29.3748049

 Broyden mixing:
  rms(total) = 0.91521E-02    rms(broyden)= 0.91514E-02
  rms(prec ) = 0.95296E-02
  weight for this iteration     100.00

 eigenvalues of (default mixing * dielectric matrix)
  average eigenvalue GAMMA=   1.5289
  6.6114  2.8373  2.4516  1.1477  1.1477  0.9570  0.9570  0.3775  0.7381  0.7381
  0.6919  0.6101  0.6101

 Free energy of the ion-electron system (eV)
  ---------------------------------------------------
  alpha Z        PSCENC =      1362.55286497
  Ewald energy   TEWEN  =    -25513.06237826
  -Hartree energ DENC   =    -10007.28690003
  -exchange      EXHF   =         0.00000000
  -V(xc)+E(xc)   XCENC  =      1356.96619742
  PAW double counting   =     35801.56178021   -36964.95667295
  entropy T*S    EENTRO =         0.00000000
  eigenvalues    EBANDS =     -3528.79778328
  atomic energy  EATOM  =     37271.60537339
  Solvation  Ediel_sol  =         0.00000000
  ---------------------------------------------------
  free energy    TOTEN  =      -221.41751854 eV

  energy without entropy =     -221.41751854  energy(sigma->0) =     -221.41751854


--------------------------------------------------------------------------------------------------------




--------------------------------------- Iteration      1(  19)  ---------------------------------------


    POTLOK:  cpu time    0.0926: real time    0.0930
    SETDIJ:  cpu time    0.0131: real time    0.0131
     EDDAV:  cpu time   16.8037: real time   16.8600
 BZINTS: Fermi energy:  6.182570;276.000000 electrons
         Band energy:***********;  BLOECHL correction: -0.033014
       DOS:  cpu time    0.0472: real time    0.0473
    CHARGE:  cpu time    0.5664: real time    0.5681
    MIXING:  cpu time    0.0049: real time    0.0358
    --------------------------------------------
      LOOP:  cpu time   17.5280: real time   17.6173

 eigenvalue-minimisations  : 13872
 total energy-change (2. order) :-0.6136674E-04  (-0.9594062E-05)
 number of electron     276.0000100 magnetization      42.3213372
 augmentation part      112.1750648 magnetization      29.3719749

 Broyden mixing:
  rms(total) = 0.19393E-02    rms(broyden)= 0.19381E-02
  rms(prec ) = 0.20659E-02
  weight for this iteration     100.00

 eigenvalues of (default mixing * dielectric matrix)
  average eigenvalue GAMMA=   1.5140
  6.6850  2.8554  2.4250  1.2920  1.2920  0.9977  0.9977  0.3775  0.7786  0.7786
  0.7456  0.7456  0.6127  0.6127

 Free energy of the ion-electron system (eV)
  ---------------------------------------------------
  alpha Z        PSCENC =      1362.55286497
  Ewald energy   TEWEN  =    -25513.06237826
  -Hartree energ DENC   =    -10007.63767636
  -exchange      EXHF   =         0.00000000
  -V(xc)+E(xc)   XCENC  =      1356.94568465
  PAW double counting   =     35797.09597541   -36960.43810466
  entropy T*S    EENTRO =         0.00000000
  eigenvalues    EBANDS =     -3528.47931905
  atomic energy  EATOM  =     37271.60537339
  Solvation  Ediel_sol  =         0.00000000
  ---------------------------------------------------
  free energy    TOTEN  =      -221.41757990 eV

  energy without entropy =     -221.41757990  energy(sigma->0) =     -221.41757990


--------------------------------------------------------------------------------------------------------




--------------------------------------- Iteration      1(  20)  ---------------------------------------


    POTLOK:  cpu time    0.0987: real time    0.0991
    SETDIJ:  cpu time    0.0130: real time    0.0131
     EDDAV:  cpu time   15.5811: real time   15.6256
 BZINTS: Fermi energy:  6.182951;276.000000 electrons
         Band energy:***********;  BLOECHL correction: -0.033025
       DOS:  cpu time    0.0483: real time    0.0484
    CHARGE:  cpu time    0.5694: real time    0.5709
    MIXING:  cpu time    0.0036: real time    0.0036
    --------------------------------------------
      LOOP:  cpu time   16.3141: real time   16.3606

 eigenvalue-minimisations  : 12600
 total energy-change (2. order) :-0.1293699E-04  (-0.2677887E-05)
 number of electron     276.0000100 magnetization      42.3169914
 augmentation part      112.1740484 magnetization      29.3693674

 Broyden mixing:
  rms(total) = 0.89110E-03    rms(broyden)= 0.89077E-03
  rms(prec ) = 0.91119E-03
  weight for this iteration     100.00

 eigenvalues of (default mixing * dielectric matrix)
  average eigenvalue GAMMA=   1.5005
  6.7170  2.9517  2.4000  1.7829  1.0141  1.0141  1.0496  1.0496  0.3775  0.7381
  0.7381  0.6041  0.7306  0.6699  0.6699

 Free energy of the ion-electron system (eV)
  ---------------------------------------------------
  alpha Z        PSCENC =      1362.55286497
  Ewald energy   TEWEN  =    -25513.06237826
  -Hartree energ DENC   =    -10007.73119033
  -exchange      EXHF   =         0.00000000
  -V(xc)+E(xc)   XCENC  =      1356.94091563
  PAW double counting   =     35796.74542877   -36960.08981723
  entropy T*S    EENTRO =         0.00000000
  eigenvalues    EBANDS =     -3528.37878977
  atomic energy  EATOM  =     37271.60537339
  Solvation  Ediel_sol  =         0.00000000
  ---------------------------------------------------
  free energy    TOTEN  =      -221.41759284 eV

  energy without entropy =     -221.41759284  energy(sigma->0) =     -221.41759284


--------------------------------------------------------------------------------------------------------




--------------------------------------- Iteration      1(  21)  ---------------------------------------


    POTLOK:  cpu time    0.0958: real time    0.0963
    SETDIJ:  cpu time    0.0134: real time    0.0134
     EDDAV:  cpu time   15.3123: real time   15.3531
 BZINTS: Fermi energy:  6.183214;276.000000 electrons
         Band energy:***********;  BLOECHL correction: -0.033027
       DOS:  cpu time    0.0495: real time    0.0496
    CHARGE:  cpu time    0.5698: real time    0.5715
    MIXING:  cpu time    0.0040: real time    0.0040
    --------------------------------------------
      LOOP:  cpu time   16.0448: real time   16.0880

 eigenvalue-minimisations  : 12360
 total energy-change (2. order) :-0.2379966E-05  (-0.2105870E-06)
 number of electron     276.0000100 magnetization      42.3186954
 augmentation part      112.1731950 magnetization      29.3713190

 Broyden mixing:
  rms(total) = 0.10565E-02    rms(broyden)= 0.10565E-02
  rms(prec ) = 0.11136E-02
  weight for this iteration     100.00

 eigenvalues of (default mixing * dielectric matrix)
  average eigenvalue GAMMA=   1.4982
  6.7237  2.9960  2.3048  2.3048  1.1660  1.1660  1.0037  1.0037  0.3775  0.7867
  0.7867  0.7315  0.7315  0.6650  0.6120  0.6120

 Free energy of the ion-electron system (eV)
  ---------------------------------------------------
  alpha Z        PSCENC =      1362.55286497
  Ewald energy   TEWEN  =    -25513.06237826
  -Hartree energ DENC   =    -10007.79269777
  -exchange      EXHF   =         0.00000000
  -V(xc)+E(xc)   XCENC  =      1356.94063464
  PAW double counting   =     35796.27648387   -36959.62464786
  entropy T*S    EENTRO =         0.00000000
  eigenvalues    EBANDS =     -3528.31322820
  atomic energy  EATOM  =     37271.60537339
  Solvation  Ediel_sol  =         0.00000000
  ---------------------------------------------------
  free energy    TOTEN  =      -221.41759522 eV

  energy without entropy =     -221.41759522  energy(sigma->0) =     -221.41759522


--------------------------------------------------------------------------------------------------------




--------------------------------------- Iteration      1(  22)  ---------------------------------------


    POTLOK:  cpu time    0.0954: real time    0.0961
    SETDIJ:  cpu time    0.0133: real time    0.0133
     EDDAV:  cpu time   13.7924: real time   13.8309
 BZINTS: Fermi energy:  6.183087;276.000000 electrons
         Band energy:***********;  BLOECHL correction: -0.033028
       DOS:  cpu time    0.0494: real time    0.0495
    CHARGE:  cpu time    0.5684: real time    0.5702
    MIXING:  cpu time    0.0040: real time    0.0040
    --------------------------------------------
      LOOP:  cpu time   14.5229: real time   14.5640

 eigenvalue-minimisations  : 10752
 total energy-change (2. order) :-0.8975258E-06  (-0.1038986E-06)
 number of electron     276.0000100 magnetization      42.3212296
 augmentation part      112.1737830 magnetization      29.3739226

 Broyden mixing:
  rms(total) = 0.57773E-03    rms(broyden)= 0.57773E-03
  rms(prec ) = 0.60196E-03
  weight for this iteration     100.00

 eigenvalues of (default mixing * dielectric matrix)
  average eigenvalue GAMMA=   1.4796
  6.7084  2.9963  2.5402  2.2411  1.2497  1.2497  1.0137  1.0137  0.3775  0.8555
  0.8555  0.7280  0.7280  0.7204  0.6061  0.6342  0.6342

 Free energy of the ion-electron system (eV)
  ---------------------------------------------------
  alpha Z        PSCENC =      1362.55286497
  Ewald energy   TEWEN  =    -25513.06237826
  -Hartree energ DENC   =    -10007.76352157
  -exchange      EXHF   =         0.00000000
  -V(xc)+E(xc)   XCENC  =      1356.94074420
  PAW double counting   =     35796.50097789   -36959.85111123
  entropy T*S    EENTRO =         0.00000000
  eigenvalues    EBANDS =     -3528.34054551
  atomic energy  EATOM  =     37271.60537339
  Solvation  Ediel_sol  =         0.00000000
  ---------------------------------------------------
  free energy    TOTEN  =      -221.41759612 eV

  energy without entropy =     -221.41759612  energy(sigma->0) =     -221.41759612


--------------------------------------------------------------------------------------------------------




--------------------------------------- Iteration      1(  23)  ---------------------------------------


    POTLOK:  cpu time    0.0950: real time    0.0954
    SETDIJ:  cpu time    0.0132: real time    0.0132
     EDDAV:  cpu time   12.1429: real time   12.1796
 BZINTS: Fermi energy:  6.183034;276.000000 electrons
         Band energy:***********;  BLOECHL correction: -0.033026
       DOS:  cpu time    0.0459: real time    0.0460
    CHARGE:  cpu time    0.5681: real time    0.5698
    MIXING:  cpu time    0.0042: real time    0.0042
    --------------------------------------------
      LOOP:  cpu time   12.8692: real time   12.9081

 eigenvalue-minimisations  :  8976
 total energy-change (2. order) : 0.1835229E-05  (-0.2525925E-07)
 number of electron     276.0000100 magnetization      42.3219356
 augmentation part      112.1740470 magnetization      29.3743040

 Broyden mixing:
  rms(total) = 0.15860E-03    rms(broyden)= 0.15858E-03
  rms(prec ) = 0.16609E-03
  weight for this iteration     100.00

 eigenvalues of (default mixing * dielectric matrix)
  average eigenvalue GAMMA=   1.4833
  6.7011  3.0417  2.6603  2.2460  1.4321  1.4321  1.0376  1.0376  0.3775  0.9328
  0.9328  0.8266  0.7353  0.7353  0.6704  0.6704  0.6153  0.6153

 Free energy of the ion-electron system (eV)
  ---------------------------------------------------
  alpha Z        PSCENC =      1362.55286497
  Ewald energy   TEWEN  =    -25513.06237826
  -Hartree energ DENC   =    -10007.74518956
  -exchange      EXHF   =         0.00000000
  -V(xc)+E(xc)   XCENC  =      1356.94182299
  PAW double counting   =     35796.75762909   -36960.11218265
  entropy T*S    EENTRO =         0.00000000
  eigenvalues    EBANDS =     -3528.35553425
  atomic energy  EATOM  =     37271.60537339
  Solvation  Ediel_sol  =         0.00000000
  ---------------------------------------------------
  free energy    TOTEN  =      -221.41759428 eV

  energy without entropy =     -221.41759428  energy(sigma->0) =     -221.41759428


--------------------------------------------------------------------------------------------------------




--------------------------------------- Iteration      1(  24)  ---------------------------------------


    POTLOK:  cpu time    0.0951: real time    0.0956
    SETDIJ:  cpu time    0.0133: real time    0.0134
     EDDAV:  cpu time   10.0909: real time   10.1176
 BZINTS: Fermi energy:  6.183034;276.000000 electrons
         Band energy:***********;  BLOECHL correction: -0.033026
       DOS:  cpu time    0.0484: real time    0.0485
    CHARGE:  cpu time    0.5649: real time    0.5664
    MIXING:  cpu time    0.0043: real time    0.0043
    --------------------------------------------
      LOOP:  cpu time   10.8169: real time   10.8457

 eigenvalue-minimisations  :  6468
 total energy-change (2. order) : 0.7943818E-06  (-0.7892311E-08)
 number of electron     276.0000100 magnetization      42.3220288
 augmentation part      112.1740644 magnetization      29.3742956

 Broyden mixing:
  rms(total) = 0.81484E-04    rms(broyden)= 0.81476E-04
  rms(prec ) = 0.85606E-04
  weight for this iteration     100.00

 eigenvalues of (default mixing * dielectric matrix)
[...]
  0.000  -0.002   0.000   0.000  -0.001   0.000  -0.000  -0.000  -0.006  -0.000   0.000  -0.000   0.000   0.009   0.000  -0.000
 total augmentation occupancy for first ion, spin component:           2
 -0.003   0.000  -0.000  -0.010   0.000   0.000   0.002   0.001  -0.000   0.000   0.000  -0.003  -0.002   0.000  -0.000  -0.000
  0.000  -0.003  -0.000   0.000  -0.010   0.000   0.000   0.000  -0.001   0.000   0.000  -0.000  -0.000   0.002   0.000  -0.000
  0.000  -0.000  -0.003  -0.000  -0.000  -0.010   0.000  -0.000   0.000   0.001  -0.002  -0.000   0.000  -0.000  -0.002   0.003
 -0.010   0.000  -0.000   0.021   0.000   0.000  -0.085  -0.050  -0.000   0.002   0.013   0.049   0.032   0.000  -0.001  -0.008
 -0.000  -0.010   0.000   0.000   0.017   0.000  -0.000  -0.000   0.076  -0.000  -0.000  -0.000  -0.000  -0.043   0.000   0.000
  0.000  -0.000  -0.010  -0.000  -0.000   0.021   0.013  -0.002  -0.000  -0.050   0.085  -0.008   0.001   0.000   0.032  -0.049
  0.002   0.000   0.000  -0.085   0.000   0.013   4.294   0.576  -0.000  -0.179  -0.000  -2.428  -0.470  -0.000   0.166   0.002
  0.001   0.000  -0.000  -0.050   0.000  -0.002   0.576   5.019   0.000  -0.000  -0.179  -0.468  -3.024  -0.000   0.003   0.166
 -0.000  -0.001   0.000  -0.000   0.076  -0.000  -0.000   0.000   4.388   0.000  -0.000   0.000  -0.000  -2.383  -0.000   0.000
  0.000  -0.000   0.001   0.002  -0.000  -0.050  -0.179   0.000   0.000   5.019  -0.576   0.166  -0.003  -0.000  -3.024   0.468
  0.000   0.000  -0.002   0.013  -0.000   0.085   0.000  -0.179  -0.000  -0.576   4.294  -0.002   0.166   0.000   0.470  -2.428
 -0.003   0.000  -0.000   0.049  -0.000  -0.008  -2.428  -0.468   0.000   0.166  -0.002   1.294   0.331   0.000  -0.129   0.000
 -0.002   0.000   0.000   0.032   0.000   0.001  -0.470  -3.024  -0.000  -0.003   0.166   0.331   1.750   0.000   0.000  -0.129
  0.000   0.002  -0.000   0.000  -0.043   0.000  -0.000  -0.000  -2.383  -0.000   0.000  -0.000   0.000   1.232   0.000  -0.000
 -0.000   0.000  -0.002  -0.001   0.000   0.032   0.166   0.003  -0.000  -3.024   0.470  -0.129   0.000   0.000   1.750  -0.331
 -0.000  -0.000   0.003  -0.008   0.000  -0.049   0.002   0.166   0.000   0.468  -2.428   0.000  -0.129  -0.000  -0.331   1.294
 -0.000   0.000  -0.000  -0.000   0.001  -0.000   0.000  -0.000   0.044  -0.000  -0.000   0.000   0.000  -0.022  -0.000   0.000
  0.000   0.000   0.000  -0.000   0.001   0.000   0.000   0.000   0.007   0.000  -0.000  -0.000   0.000  -0.005   0.000   0.000


------------------------ aborting loop because EDIFF is reached ----------------------------------------


 


 total charge     
 
# of ion       s       p       d       tot
------------------------------------------
    1        0.284   6.340   5.852  12.476
    2        0.284   6.340   5.855  12.478
    3        0.284   6.340   5.862  12.486
    4        0.284   6.340   5.852  12.475
    5        0.284   6.340   5.854  12.478
    6        0.284   6.340   5.865  12.489
    7        0.284   6.340   5.851  12.474
    8        0.284   6.340   5.853  12.477
    9        0.283   6.340   5.854  12.477
   10        0.283   6.340   5.868  12.492
   11        0.283   6.340   5.865  12.489
   12        0.283   6.340   5.857  12.480
   13        1.568   3.416   0.000   4.984
   14        1.568   3.416   0.000   4.984
   15        1.568   3.416   0.000   4.984
   16        1.568   3.417   0.000   4.985
   17        1.568   3.417   0.000   4.985
   18        1.568   3.416   0.000   4.984
   19        1.567   3.404   0.000   4.971
   20        1.567   3.404   0.000   4.970
   21        1.567   3.405   0.000   4.971
   22        1.567   3.405   0.000   4.971
   23        1.567   3.405   0.000   4.972
   24        1.567   3.405   0.000   4.972
   25        1.569   3.417   0.000   4.986
   26        1.569   3.417   0.000   4.985
   27        1.569   3.419   0.000   4.987
   28        1.569   3.420   0.000   4.988
   29        1.569   3.419   0.000   4.988
   30        1.569   3.419   0.000   4.987
--------------------------------------------------
tot         31.621 137.516  70.288 239.425
 


 magnetization (x)
 
# of ion       s       p       d       tot
------------------------------------------
    1        0.024   0.036   3.140   3.200
    2        0.024   0.036   3.137   3.197
    3        0.025   0.036   3.134   3.194
    4        0.025   0.036   3.139   3.200
    5        0.025   0.036   3.140   3.200
    6        0.025   0.036   3.131   3.192
    7        0.024   0.036   3.124   3.184
    8        0.024   0.036   3.121   3.181
    9        0.025   0.036   3.122   3.182
   10        0.025   0.036   3.115   3.176
   11        0.025   0.036   3.118   3.178
   12        0.025   0.036   3.122   3.182
   13        0.020   0.139   0.000   0.159
   14        0.020   0.138   0.000   0.159
   15        0.020   0.139   0.000   0.159
   16        0.020   0.140   0.000   0.160
   17        0.020   0.140   0.000   0.161
   18        0.020   0.139   0.000   0.159
   19        0.021   0.143   0.000   0.165
   20        0.021   0.143   0.000   0.164
   21        0.021   0.144   0.000   0.165
   22        0.021   0.144   0.000   0.165
   23        0.021   0.144   0.000   0.165
   24        0.021   0.144   0.000   0.165
   25        0.020   0.135   0.000   0.156
   26        0.020   0.135   0.000   0.155
   27        0.020   0.136   0.000   0.157
   28        0.020   0.137   0.000   0.158
   29        0.020   0.137   0.000   0.157
   30        0.020   0.137   0.000   0.157
--------------------------------------------------
tot          0.668   2.945  37.542  41.155
 
    CHARGE:  cpu time    0.5649: real time    0.5664
    FORLOC:  cpu time    0.0106: real time    0.0106
    FORNL :  cpu time    4.0328: real time    4.0430
    STRESS:  cpu time   12.0232: real time   12.0541
    FORCOR:  cpu time    0.1019: real time    0.1022
    FORHAR:  cpu time    0.0182: real time    0.0183
    MIXING:  cpu time    0.0044: real time    0.0044
    OFIELD:  cpu time    0.0001: real time    0.0001

  FORCE on cell =-STRESS in cart. coord.  units (eV):
  Direction    XX          YY          ZZ          XY          YZ          ZX
  --------------------------------------------------------------------------------------
  Alpha Z  1362.55286  1362.55286  1362.55286
  Ewald   -8201.75422 -8201.75360 -9109.63806     0.00000     0.00002    -0.00000
  Hartree  3503.91859  3503.91844  2999.90085    -0.00000     0.00001    -0.00000
  E(xc)   -1615.77078 -1615.77084 -1617.33558    -0.00004    -0.00000     0.00000
  Local    -165.09879  -165.09929  1230.81079    -0.00071    -0.00004     0.00000
  n-local  -743.69210  -742.57753  -745.12802    -4.17598     0.49563     0.12072
  augment  1844.88232  1844.88269  1846.76989     0.00059     0.00000     0.00000
  Kinetic  4006.72640  4008.83039  4024.57379     7.64553    -1.98530    -5.05545
  Fock        0.00000     0.00000     0.00000     0.00000     0.00000     0.00000
  -------------------------------------------------------------------------------------
  Total      -6.62630    -6.62629    -7.49348     0.00000     0.00000     0.00000
  in kB     -35.14602   -35.14601   -39.74556     0.00000     0.00000     0.00000
  external pressure =      -36.68 kB  Pullay stress =        0.00 kB


 VOLUME and BASIS-vectors are now :
 -----------------------------------------------------------------------------
  energy-cutoff  :      640.00
  volume of cell :      302.07
      direct lattice vectors                 reciprocal lattice vectors
     5.035100000  0.000000000  0.000000000     0.198605787  0.114665118  0.000000000
    -2.517550000  4.360524000  0.000000000     0.000000000  0.229330236  0.000000000
     0.000000000  0.000000000 13.758100000     0.000000000  0.000000000  0.072684455

  length of vectors
     5.035100000  5.035099558 13.758100000     0.229330216  0.229330236  0.072684455


 FORCES acting on ions
    electron-ion (+dipol)            ewald-force                    non-local-force                 convergence-correction
 -----------------------------------------------------------------------------------------------
   0.156E-03 0.366E-03 -.126E+03   -.101E-02 0.523E-03 0.128E+03   -.173E-17 0.000E+00 -.289E+01   -.510E-08 0.293E-08 0.150E-05
   -.402E-03 0.579E-03 0.126E+03   0.101E-02 -.523E-03 -.128E+03   0.000E+00 -.434E-18 0.289E+01   0.765E-08 -.437E-08 -.150E-05
   -.135E-03 0.534E-03 -.126E+03   0.314E-02 -.187E-02 0.128E+03   -.737E-17 -.260E-17 -.289E+01   0.134E-06 -.781E-07 0.770E-05
   -.327E-03 0.645E-03 -.126E+03   -.220E-02 0.121E-02 0.128E+03   -.304E-17 0.173E-17 -.289E+01   -.126E-06 0.722E-07 0.981E-05
   0.809E-04 0.300E-03 0.126E+03   0.220E-02 -.121E-02 -.128E+03   0.173E-17 0.477E-17 0.289E+01   0.128E-06 -.737E-07 -.981E-05
   -.112E-03 0.411E-03 0.126E+03   -.314E-02 0.187E-02 -.128E+03   -.304E-17 -.867E-18 0.289E+01   -.132E-06 0.767E-07 -.770E-05
   0.566E-03 -.105E-02 0.126E+03   0.964E-03 -.523E-03 -.128E+03   0.976E-17 0.304E-17 0.289E+01   0.796E-08 -.463E-08 -.150E-05
   0.104E-02 -.127E-02 -.126E+03   -.964E-03 0.523E-03 0.128E+03   0.499E-17 -.434E-18 -.289E+01   -.501E-08 0.240E-08 0.150E-05
   0.105E-02 -.133E-02 0.126E+03   0.215E-02 -.121E-02 -.128E+03   0.781E-17 -.434E-18 0.289E+01   0.128E-06 -.746E-07 -.981E-05
   0.749E-03 -.110E-02 -.126E+03   0.319E-02 -.187E-02 0.128E+03   -.173E-17 0.173E-17 -.289E+01   0.135E-06 -.779E-07 0.770E-05
   0.857E-03 -.121E-02 0.126E+03   -.319E-02 0.187E-02 -.128E+03   0.651E-18 0.000E+00 0.289E+01   -.132E-06 0.756E-07 -.770E-05
   0.557E-03 -.989E-03 -.126E+03   -.215E-02 0.121E-02 0.128E+03   -.542E-17 0.217E-17 -.289E+01   -.125E-06 0.724E-07 0.981E-05
   -.424E+02 -.134E-02 0.215E-03   0.418E+02 0.106E-02 -.470E-03   0.677E+00 -.365E-17 -.867E-18   0.420E-05 0.314E-07 -.296E-08
   0.424E+02 -.864E-04 -.336E-03   -.418E+02 -.106E-02 0.470E-03   -.677E+00 -.217E-18 0.428E-17   -.420E-05 -.335E-07 0.138E-08
   -.424E+02 -.319E-02 -.584E-02   0.418E+02 0.570E-03 -.997E-03   0.677E+00 0.201E-17 0.791E-17   0.421E-05 -.263E-07 -.187E-05
   -.424E+02 0.239E-02 0.544E-02   0.418E+02 -.163E-02 0.147E-02   0.677E+00 -.233E-17 0.759E-18   0.424E-05 -.820E-08 0.187E-05
   0.424E+02 -.382E-02 -.556E-02   -.418E+02 0.163E-02 -.147E-02   -.677E+00 -.651E-18 -.271E-17   -.425E-05 0.609E-08 -.187E-05
   0.424E+02 0.177E-02 0.572E-02   -.418E+02 -.570E-03 0.997E-03   -.677E+00 0.217E-18 -.239E-17   -.421E-05 0.242E-07 0.187E-05
   0.212E+02 -.367E+02 -.307E-03   -.209E+02 0.362E+02 0.438E-03   -.339E+00 0.587E+00 -.260E-17   -.207E-05 0.366E-05 0.134E-08
   -.212E+02 0.367E+02 0.194E-03   0.209E+02 -.362E+02 -.438E-03   0.339E+00 -.587E+00 0.260E-17   0.207E-05 -.365E-05 -.294E-08
   0.212E+02 -.367E+02 -.553E-02   -.209E+02 0.362E+02 -.150E-02   -.339E+00 0.587E+00 0.434E-17   -.213E-05 0.367E-05 -.187E-05
   0.212E+02 -.367E+02 0.575E-02   -.209E+02 0.362E+02 0.964E-03   -.339E+00 0.587E+00 -.347E-17   -.213E-05 0.363E-05 0.187E-05
   -.212E+02 0.367E+02 -.586E-02   0.209E+02 -.362E+02 -.964E-03   0.339E+00 -.587E+00 -.781E-17   0.213E-05 -.363E-05 -.187E-05
   -.212E+02 0.367E+02 0.542E-02   0.209E+02 -.362E+02 0.150E-02   0.339E+00 -.587E+00 0.347E-17   0.213E-05 -.367E-05 0.187E-05
   0.212E+02 0.367E+02 0.939E-04   -.209E+02 -.362E+02 0.322E-04   -.339E+00 -.587E+00 0.607E-17   -.213E-05 -.369E-05 0.159E-08
   -.212E+02 -.367E+02 0.144E-03   0.209E+02 0.362E+02 -.322E-04   0.339E+00 0.587E+00 0.130E-17   0.213E-05 0.369E-05 0.153E-08
   0.212E+02 0.367E+02 -.408E-02   -.209E+02 -.362E+02 -.303E-02   -.339E+00 -.587E+00 0.867E-18   -.206E-05 -.366E-05 -.187E-05
   -.212E+02 -.367E+02 -.403E-02   0.209E+02 0.362E+02 -.310E-02   0.339E+00 0.587E+00 -.173E-17   0.214E-05 0.361E-05 -.187E-05
   0.212E+02 0.367E+02 0.427E-02   -.209E+02 -.362E+02 0.310E-02   -.339E+00 -.587E+00 0.607E-17   -.214E-05 -.361E-05 0.188E-05
   -.212E+02 -.367E+02 0.432E-02   0.209E+02 0.362E+02 0.303E-02   0.339E+00 0.587E+00 0.130E-17   0.206E-05 0.366E-05 0.188E-05
 -----------------------------------------------------------------------------------------------
   0.150E-01 -.165E-01 -.112E-04   -.995E-13 -.995E-13 -.192E-12   -.111E-15 0.444E-15 0.174E-16   0.251E-07 -.182E-07 0.140E-08
 
 
 POSITION                                       TOTAL-FORCE (eV/Angst)
 -----------------------------------------------------------------------------------
      0.00000      0.00000      4.88853        -0.000000      0.000000     -0.924978
      0.00000      0.00000      8.86957        -0.000000      0.000000      0.924978
     -0.00000      2.90702      0.30250        -0.000000      0.000000     -0.924978
      2.51755      1.45351      9.47456        -0.000000      0.000000     -0.924978
     -0.00000      2.90702      4.28354        -0.000000      0.000000      0.924978
      2.51755      1.45351     13.45560        -0.000000      0.000000      0.924978
      0.00000      0.00000      1.99052        -0.000000      0.000000      0.924978
      0.00000      0.00000     11.76758        -0.000000      0.000000     -0.924978
     -0.00000      2.90702     11.16259        -0.000000      0.000000      0.924978
     -0.00000      2.90702      7.18155        -0.000000      0.000000     -0.924978
      2.51755      1.45351      6.57655        -0.000000      0.000000      0.924978
      2.51755      1.45351      2.59551        -0.000000      0.000000     -0.924978
      1.54165      0.00000      3.43953         0.087168      0.000000     -0.000000
      3.49345      0.00000     10.31858        -0.087168      0.000000     -0.000000
      1.54164      2.90702     12.61160         0.087168      0.000000     -0.000000
      4.05920      1.45351      8.02555         0.087168      0.000000     -0.000000
     -1.54165      2.90702      5.73255        -0.087168      0.000000     -0.000000
      0.97591      1.45351      1.14650        -0.087168      0.000000     -0.000000
     -0.77082      1.33511      3.43953        -0.043584      0.075490     -0.000000
     -1.74673      3.02542     10.31858         0.043584     -0.075490     -0.000000
     -0.77083      4.24212     12.61160        -0.043584      0.075490     -0.000000
      1.74673      2.78861      8.02555        -0.043584      0.075490     -0.000000
      0.77082      1.57191      5.73255         0.043584     -0.075490     -0.000000
      3.28838      0.11840      1.14650         0.043584     -0.075490     -0.000000
      1.74673      3.02542      3.43953        -0.043584     -0.075490     -0.000000
      0.77082      1.33511     10.31858         0.043584      0.075490     -0.000000
     -0.77083      1.57191     12.61160        -0.043584     -0.075490     -0.000000
      0.77082      4.24212      5.73255         0.043584      0.075490     -0.000000
      1.74673      0.11840      8.02555        -0.043584     -0.075490     -0.000000
      3.28838      2.78861      1.14650         0.043584      0.075490     -0.000000
 -----------------------------------------------------------------------------------
    total drift:                                0.014957     -0.016514     -0.000011


--------------------------------------------------------------------------------------------------------



  FREE ENERGIE OF THE ION-ELECTRON SYSTEM (eV)
  ---------------------------------------------------
  free  energy   TOTEN  =      -221.41759373 eV

  energy  without entropy=     -221.41759373  energy(sigma->0) =     -221.41759373
 


--------------------------------------------------------------------------------------------------------


    POTLOK:  cpu time    0.1080: real time    0.1083


--------------------------------------------------------------------------------------------------------


     LOOP+:  cpu time  426.1908: real time  427.4262
    4ORBIT:  cpu time    0.0000: real time    0.0000
 


 total charge     
 
# of ion       s       p       d       tot
------------------------------------------
    1        0.284   6.340   5.852  12.476
    2        0.284   6.340   5.855  12.478
    3        0.284   6.340   5.862  12.486
    4        0.284   6.340   5.852  12.475
    5        0.284   6.340   5.854  12.478
    6        0.284   6.340   5.865  12.489
    7        0.284   6.340   5.851  12.474
    8        0.284   6.340   5.853  12.477
    9        0.283   6.340   5.854  12.477
   10        0.283   6.340   5.868  12.492
   11        0.283   6.340   5.865  12.489
   12        0.283   6.340   5.857  12.480
   13        1.568   3.416   0.000   4.984
   14        1.568   3.416   0.000   4.984
   15        1.568   3.416   0.000   4.984
   16        1.568   3.417   0.000   4.985
   17        1.568   3.417   0.000   4.985
   18        1.568   3.416   0.000   4.984
   19        1.567   3.404   0.000   4.971
   20        1.567   3.404   0.000   4.970
   21        1.567   3.405   0.000   4.971
   22        1.567   3.405   0.000   4.971
   23        1.567   3.405   0.000   4.972
   24        1.567   3.405   0.000   4.972
   25        1.569   3.417   0.000   4.986
   26        1.569   3.417   0.000   4.985
   27        1.569   3.419   0.000   4.987
   28        1.569   3.420   0.000   4.988
   29        1.569   3.419   0.000   4.988
   30        1.569   3.419   0.000   4.987
--------------------------------------------------
tot         31.621 137.516  70.288 239.425
 


 magnetization (x)
 
# of ion       s       p       d       tot
------------------------------------------
    1        0.024   0.036   3.140   3.200
    2        0.024   0.036   3.137   3.197
    3        0.025   0.036   3.134   3.194
    4        0.025   0.036   3.139   3.200
    5        0.025   0.036   3.140   3.200
    6        0.025   0.036   3.131   3.192
    7        0.024   0.036   3.124   3.184
    8        0.024   0.036   3.121   3.181
    9        0.025   0.036   3.122   3.182
   10        0.025   0.036   3.115   3.176
   11        0.025   0.036   3.118   3.178
   12        0.025   0.036   3.122   3.182
   13        0.020   0.139   0.000   0.159
   14        0.020   0.138   0.000   0.159
   15        0.020   0.139   0.000   0.159
   16        0.020   0.140   0.000   0.160
   17        0.020   0.140   0.000   0.161
   18        0.020   0.139   0.000   0.159
   19        0.021   0.143   0.000   0.165
   20        0.021   0.143   0.000   0.164
   21        0.021   0.144   0.000   0.165
   22        0.021   0.144   0.000   0.165
   23        0.021   0.144   0.000   0.165
   24        0.021   0.144   0.000   0.165
   25        0.020   0.135   0.000   0.156
   26        0.020   0.135   0.000   0.155
   27        0.020   0.136   0.000   0.157
   28        0.020   0.137   0.000   0.158
   29        0.020   0.137   0.000   0.157
   30        0.020   0.137   0.000   0.157
--------------------------------------------------
tot          0.668   2.945  37.542  41.155
 
 BZINTS: Fermi energy:  6.183016;276.000000 electrons
         Band energy:***********;  BLOECHL correction: -0.033026

 total amount of memory used by VASP MPI-rank0    98071. kBytes
=======================================================================

   base      :      30000. kBytes
   nonlr-proj:       8926. kBytes
   fftplans  :       4268. kBytes
   grid      :      10944. kBytes
   one-center:        248. kBytes
   wavefun   :      43685. kBytes
 
  
  
 General timing and accounting informations for this job:
 ========================================================
  
                  Total CPU time used (sec):      433.914
                            User time (sec):      432.532
                          System time (sec):        1.382
                         Elapsed time (sec):      435.250
  
                   Maximum memory used (kb):      142376.
                   Average memory used (kb):           0.
  
                          Minor page faults:        78825
                          Major page faults:            0
                 Voluntary context switches:          276
