=========================================
SLURM_JOB_ID = 51706453
SLURM_JOB_NODELIST = lnode17
SLURM_GPUS = 
SLURM_CPUS_ON_NODE = 24
SLURM_JOB_PARTITION = lenovo
SLURM_TASK_PID = 3033601
CUDA_VISIBLE_DEVICES = 
==========================================
 running on   24 total cores
 distrk:  each k-point on   24 cores,    1 groups
 distr:  one band on    4 cores,    6 groups
 using from now: INCAR     
 vasp.5.4.4.18Apr17-6-g9f103f2a35 (build Apr 28 2018 00:24:27) complex          
  
 POSCAR found type information on POSCAR  Fe O 
 POSCAR found :  2 types and      30 ions
 scaLAPACK will be used
 LDA part: xc-table for Pade appr. of Perdew
 POSCAR, INCAR and KPOINTS ok, starting setup
 FFT: planning ...
 WAVECAR not read
 entering main loop
       N       E                     dE             d eps       ncg     rms          rms(c)
DAV:   1     0.430231663167E+04    0.43023E+04   -0.14394E+05 11592   0.197E+03
DAV:   2     0.445209404140E+03   -0.38571E+04   -0.35051E+04 11424   0.556E+02
DAV:   3    -0.250644372531E+03   -0.69585E+03   -0.62282E+03 11892   0.234E+02
DAV:   4    -0.293934123464E+03   -0.43290E+02   -0.42796E+02 12936   0.583E+01
DAV:   5    -0.294409142666E+03   -0.47502E+00   -0.47384E+00 12768   0.690E+00    0.809E+01
DAV:   6    -0.235315902363E+03    0.59093E+02   -0.25338E+02 14784   0.809E+01    0.914E+01
DAV:   7    -0.211144477712E+03    0.24171E+02   -0.11483E+02 12204   0.634E+01    0.438E+01
DAV:   8    -0.218268694888E+03   -0.71242E+01   -0.21399E+01 12132   0.170E+01    0.264E+01
DAV:   9    -0.222544797243E+03   -0.42761E+01   -0.84191E+00 12588   0.173E+01    0.278E+01
DAV:  10    -0.222098021640E+03    0.44678E+00   -0.25114E+00 12540   0.706E+00    0.187E+01
DAV:  11    -0.221514504717E+03    0.58352E+00   -0.24656E-01 14196   0.287E+00    0.122E+01
DAV:  12    -0.221312934843E+03    0.20157E+00   -0.19569E-01 15132   0.239E+00    0.853E+00
DAV:  13    -0.221307811361E+03    0.51235E-02   -0.11768E-01 13956   0.233E+00    0.461E+00
DAV:  14    -0.221355125269E+03   -0.47314E-01   -0.16530E-01 14820   0.203E+00    0.170E+00
DAV:  15    -0.221374475316E+03   -0.19350E-01   -0.65722E-02 12336   0.687E-01    0.139E+00
DAV:  16    -0.221369149623E+03    0.53257E-02   -0.98250E-03 13968   0.732E-01    0.320E-01
DAV:  17    -0.221369914894E+03   -0.76527E-03   -0.44133E-03 12132   0.167E-01    0.175E-01
DAV:  18    -0.221370172502E+03   -0.25761E-03   -0.19359E-04 13704   0.738E-02    0.970E-02
DAV:  19    -0.221370246527E+03   -0.74025E-04   -0.86740E-05 13980   0.458E-02    0.232E-02
DAV:  20    -0.221370261437E+03   -0.14910E-04   -0.32403E-05 13188   0.192E-02    0.908E-03
DAV:  21    -0.221370269344E+03   -0.79065E-05   -0.30688E-06 11748   0.550E-03    0.951E-03
DAV:  22    -0.221370270190E+03   -0.84666E-06   -0.47594E-07  9408   0.331E-03    0.634E-03
DAV:  23    -0.221370266998E+03    0.31926E-05   -0.20321E-07  8520   0.235E-03    0.237E-03
DAV:  24    -0.221370265882E+03    0.11157E-05   -0.10562E-07  6744   0.108E-03    0.914E-04
DAV:  25    -0.221370266402E+03   -0.51982E-06   -0.25430E-08  6216   0.419E-04    0.350E-04
DAV:  26    -0.221370266635E+03   -0.23318E-06   -0.28651E-09  6180   0.212E-04    0.437E-04
DAV:  27    -0.221370266361E+03    0.27392E-06   -0.31749E-09  6180   0.233E-04    0.374E-04
DAV:  28    -0.221370266190E+03    0.17103E-06   -0.75941E-10  6168   0.104E-04    0.218E-04
DAV:  29    -0.221370266139E+03    0.50990E-07   -0.81262E-10  6168   0.722E-05
   1 F= -.22137027E+03 E0= -.22137027E+03  d E =0.000000E+00  mag=    42.3065
