 vasp.5.4.4.18Apr17-6-g9f103f2a35 (build Apr 28 2018 00:24:27) complex          
  
 executed on             LinuxIFC date 2021.09.06  03:42:36
 running on   24 total cores
 distrk:  each k-point on   24 cores,    1 groups
 distr:  one band on NCORES_PER_BAND=   4 cores,    6 groups


--------------------------------------------------------------------------------------------------------


 INCAR:
 POTCAR:    PAW_PBE Fe_pv 02Aug2007               
 POTCAR:    PAW_PBE O 08Apr2002                   
 POTCAR:    PAW_PBE Fe_pv 02Aug2007               
   VRHFIN =Fe:  3pd7s1                                                          
   LEXCH  = PE                                                                  
   EATOM  =  2457.4239 eV,  180.6156 Ry                                         
                                                                                
   TITEL  = PAW_PBE Fe_pv 02Aug2007                                             
   LULTRA =        F    use ultrasoft PP ?                                      
   IUNSCR =        1    unscreen: 0-lin 1-nonlin 2-no                           
   RPACOR =    1.750    partial core radius                                     
   POMASS =   55.847; ZVAL   =   14.000    mass and valenz                      
   RCORE  =    2.200    outmost cutoff radius                                   
   RWIGS  =    2.200; RWIGS  =    1.164    wigner-seitz radius (au A)           
   ENMAX  =  293.238; ENMIN  =  219.928 eV                                      
   ICORE  =        3    local potential                                         
   LCOR   =        T    correct aug charges                                     
   LPAW   =        T    paw PP                                                  
   EAUG   =  578.342                                                            
   DEXC   =    0.000                                                            
   RMAX   =    2.249    core radius for proj-oper                               
   RAUG   =    1.300    factor for augmentation sphere                          
   RDEP   =    2.296    radius for radial grids                                 
   RDEPT  =    1.766    core radius for aug-charge                              
                                                                                
   Atomic configuration                                                         
    8 entries                                                                   
     n  l   j            E        occ.                                          
     1  0  0.50     -6993.8440   2.0000                                         
     2  0  0.50      -814.6047   2.0000                                         
     2  1  1.50      -693.3689   6.0000                                         
     3  0  0.50       -89.4732   2.0000                                         
     3  1  1.50       -55.6373   6.0000                                         
     3  2  2.50        -3.8151   7.0000                                         
     4  0  0.50        -4.2551   1.0000                                         
     4  3  2.50        -1.3606   0.0000                                         
   Description                                                                  
     l       E           TYP  RCUT    TYP  RCUT                                 
     1    -55.6372668     23  2.000                                             
     1     -5.4423304     23  2.000                                             
     2     -3.8151096     23  2.200                                             
     2     -5.1756922     23  2.200                                             
     0     -4.2550951     23  2.200                                             
     0     27.2116520     23  2.200                                             
     3     -1.3605826     23  2.200                                             
  local pseudopotential read in
  partial core-charges read in
  partial kinetic energy density read in
  atomic valenz-charges read in
  non local Contribution for L=           1  read in
    real space projection operators read in
  non local Contribution for L=           1  read in
    real space projection operators read in
  non local Contribution for L=           2  read in
    real space projection operators read in
  non local Contribution for L=           2  read in
    real space projection operators read in
  non local Contribution for L=           0  read in
    real space projection operators read in
  non local Contribution for L=           0  read in
    real space projection operators read in
    PAW grid and wavefunctions read in
 
   number of l-projection  operators is LMAX  =           6
   number of lm-projection operators is LMMAX =          18
 
 POTCAR:    PAW_PBE O 08Apr2002                   
   VRHFIN =O: s2p4                                                              
   LEXCH  = PE                                                                  
   EATOM  =   432.3788 eV,   31.7789 Ry                                         
                                                                                
   TITEL  = PAW_PBE O 08Apr2002                                                 
   LULTRA =        F    use ultrasoft PP ?                                      
   IUNSCR =        1    unscreen: 0-lin 1-nonlin 2-no                           
   RPACOR =    1.200    partial core radius                                     
   POMASS =   16.000; ZVAL   =    6.000    mass and valenz                      
   RCORE  =    1.520    outmost cutoff radius                                   
   RWIGS  =    1.550; RWIGS  =    0.820    wigner-seitz radius (au A)           
   ENMAX  =  400.000; ENMIN  =  300.000 eV                                      
   ICORE  =        2    local potential                                         
   LCOR   =        T    correct aug charges                                     
   LPAW   =        T    paw PP                                                  
   EAUG   =  605.392                                                            
   DEXC   =    0.000                                                            
   RMAX   =    1.553    core radius for proj-oper                               
   RAUG   =    1.300    factor for augmentation sphere                          
   RDEP   =    1.550    radius for radial grids                                 
   RDEPT  =    1.329    core radius for aug-charge                              
                                                                                
   Atomic configuration                                                         
    4 entries                                                                   
     n  l   j            E        occ.                                          
     1  0  0.50      -514.6923   2.0000                                         
     2  0  0.50       -23.9615   2.0000                                         
     2  1  0.50        -9.0305   4.0000                                         
     3  2  1.50        -9.5241   0.0000                                         
   Description                                                                  
     l       E           TYP  RCUT    TYP  RCUT                                 
     0    -23.9615318     23  1.200                                             
     0     -9.5240782     23  1.200                                             
     1     -9.0304911     23  1.520                                             
     1      8.1634956     23  1.520                                             
     2     -9.5240782      7  1.500                                             
  local pseudopotential read in
  partial core-charges read in
  partial kinetic energy density read in
  kinetic energy density of atom read in
  atomic valenz-charges read in
  non local Contribution for L=           0  read in
    real space projection operators read in
  non local Contribution for L=           0  read in
    real space projection operators read in
  non local Contribution for L=           1  read in
    real space projection operators read in
  non local Contribution for L=           1  read in
    real space projection operators read in
    PAW grid and wavefunctions read in
 
   number of l-projection  operators is LMAX  =           4
   number of lm-projection operators is LMMAX =           8
 
 Optimization of the real space projectors (new method)

 maximal supplied QI-value         = 17.01
 optimisation between [QCUT,QGAM] = [ 12.08, 24.15] = [ 40.83,163.33] Ry 
 Optimized for a Real-space Cutoff    1.39 Angstroem

   l    n(q)    QCUT    max X(q) W(low)/X(q) W(high)/X(q)  e(spline) 
   1     10    12.075     4.267    0.67E-04    0.21E-03    0.20E-06
   1     10    12.075     5.750    0.11E-03    0.32E-03    0.31E-06
   2      9    12.075    53.656    0.56E-04    0.90E-04    0.21E-06
   2      9    12.075    49.521    0.59E-04    0.93E-04    0.22E-06
   0     10    12.075    31.246    0.57E-04    0.25E-04    0.11E-06
   0     10    12.075    12.201    0.41E-04    0.21E-04    0.91E-07
 Optimization of the real space projectors (new method)

 maximal supplied QI-value         = 24.76
 optimisation between [QCUT,QGAM] = [ 11.88, 24.01] = [ 39.54,161.47] Ry 
 Optimized for a Real-space Cutoff    1.17 Angstroem

   l    n(q)    QCUT    max X(q) W(low)/X(q) W(high)/X(q)  e(spline) 
   0      8    11.883    20.381    0.87E-04    0.15E-03    0.30E-06
   0      8    11.883    15.268    0.95E-04    0.15E-03    0.32E-06
   1      8    11.883     5.964    0.23E-03    0.18E-04    0.32E-06
   1      8    11.883     5.382    0.21E-03    0.21E-04    0.28E-06
  PAW_PBE Fe_pv 02Aug2007               :
 energy of atom  1       EATOM=-2457.4239
 kinetic energy error for atom=    0.0059 (will be added to EATOM!!)
  PAW_PBE O 08Apr2002                   :
 energy of atom  2       EATOM= -432.3788
 kinetic energy error for atom=    0.0190 (will be added to EATOM!!)
 
 
 POSCAR: Fe12 O18                                
  positions in direct lattice
  No initial velocities read in
 exchange correlation table for  LEXCH =        8
   RHO(1)=    0.500       N(1)  =     2000
   RHO(2)=  100.500       N(2)  =     4000
 


--------------------------------------------------------------------------------------------------------


 ion  position               nearest neighbor table
   1  0.000  0.000  0.355-  17 1.94  23 1.94  28 1.94  25 2.12  19 2.12  13 2.12
   2  0.000  0.000  0.645-  16 1.94  22 1.94  29 1.94  26 2.12  20 2.12  14 2.12
   3  0.333  0.667  0.022-  30 1.94  24 1.94  18 1.94  27 2.12  21 2.12  15 2.12
   4  0.667  0.333  0.689-  14 1.94  20 1.94  26 1.94  22 2.12  29 2.12  16 2.12
   5  0.333  0.667  0.311-  13 1.94  19 1.94  25 1.94  23 2.12  28 2.12  17 2.12
   6  0.667  0.333  0.978-  27 1.94  21 1.94  15 1.94  30 2.12  24 2.12  18 2.12
   7  0.000  0.000  0.145-  24 1.94  18 1.94  30 1.94  25 2.12  19 2.12  13 2.12
   8  0.000  0.000  0.855-  21 1.94  15 1.94  27 1.94  26 2.12  20 2.12  14 2.12
   9  0.333  0.667  0.811-  20 1.94  14 1.94  26 1.94  27 2.12  21 2.12  15 2.12
  10  0.333  0.667  0.522-  29 1.94  16 1.94  22 1.94  23 2.12  28 2.12  17 2.12
  11  0.667  0.333  0.478-  28 1.94  17 1.94  23 1.94  22 2.12  29 2.12  16 2.12
  12  0.667  0.333  0.189-  19 1.94  13 1.94  25 1.94  30 2.12  24 2.12  18 2.12
  13  0.306  0.000  0.250-   5 1.94  12 1.94   7 2.12   1 2.12
  14  0.694  0.000  0.750-   4 1.94   9 1.94   8 2.12   2 2.12
  15  0.640  0.667  0.917-   6 1.94   8 1.94   9 2.12   3 2.12
  16  0.973  0.333  0.583-  10 1.94   2 1.94   4 2.12  11 2.12
  17  0.027  0.667  0.417-  11 1.94   1 1.94   5 2.12  10 2.12
  18  0.360  0.333  0.083-   3 1.94   7 1.94  12 2.12   6 2.12
  19  0.000  0.306  0.250-  12 1.94   5 1.94   7 2.12   1 2.12
  20  0.000  0.694  0.750-   9 1.94   4 1.94   8 2.12   2 2.12
  21  0.333  0.973  0.917-   6 1.94   8 1.94   9 2.12   3 2.12
  22  0.667  0.640  0.583-  10 1.94   2 1.94   4 2.12  11 2.12
  23  0.333  0.360  0.417-  11 1.94   1 1.94   5 2.12  10 2.12
  24  0.667  0.027  0.083-   3 1.94   7 1.94  12 2.12   6 2.12
  25  0.694  0.694  0.250-  12 1.94   5 1.94   7 2.12   1 2.12
  26  0.306  0.306  0.750-   9 1.94   4 1.94   8 2.12   2 2.12
  27  0.027  0.360  0.917-   6 1.94   8 1.94   9 2.12   3 2.12
  28  0.640  0.973  0.417-  11 1.94   1 1.94   5 2.12  10 2.12
  29  0.360  0.027  0.583-  10 1.94   2 1.94   4 2.12  11 2.12
  30  0.973  0.640  0.083-   3 1.94   7 1.94  12 2.12   6 2.12
 
  LATTYP: Found a hexagonal cell.
 ALAT       =     5.0350995578
 C/A-ratio  =     2.7324385232
  
  Lattice vectors:
  
 A1 = (   5.0351000000,   0.0000000000,   0.0000000000)
 A2 = (  -2.5175500000,   4.3605240000,   0.0000000000)
 A3 = (   0.0000000000,   0.0000000000,  13.7581000000)


Analysis of symmetry for initial positions (statically):
=====================================================================
 Subroutine PRICEL returns following result:
 
  LATTYP: Found a trigonal (rhomboedric) cell.
 ALAT       =     5.4297801492
 COS(alpha) =     0.5700456062
  
  Lattice vectors:
  
 A1 = (  -2.5175449649,  -1.4535109070,  -4.5860425054)
 A2 = (  -0.0000025175,   2.9070174535,  -4.5860287473)
 A3 = (   2.5175474825,  -1.4535065465,  -4.5860287473)
 
   3 primitive cells build up your supercell.
 

 Routine SETGRP: Setting up the symmetry group for a 
 hexagonal supercell.


 Subroutine GETGRP returns: Found 12 space group operations
 (whereof  6 operations were pure point group operations)
 out of a pool of 24 trial point group operations.


The static configuration has the point symmetry S_6 .
 The point group associated with its full space group is D_3d.


Analysis of symmetry for dynamics (positions and initial velocities):
=====================================================================
 Subroutine PRICEL returns following result:
 
  LATTYP: Found a trigonal (rhomboedric) cell.
 ALAT       =     5.4297801492
 COS(alpha) =     0.5700456062
  
  Lattice vectors:
  
 A1 = (  -2.5175449649,  -1.4535109070,  -4.5860425054)
 A2 = (  -0.0000025175,   2.9070174535,  -4.5860287473)
 A3 = (   2.5175474825,  -1.4535065465,  -4.5860287473)
 
   3 primitive cells build up your supercell.
 

 Routine SETGRP: Setting up the symmetry group for a 
 hexagonal supercell.


 Subroutine GETGRP returns: Found 12 space group operations
 (whereof  6 operations were pure point group operations)
 out of a pool of 24 trial point group operations.


The dynamic configuration has the point symmetry S_6 .
 The point group associated with its full space group is D_3d.


Analysis of structural, dynamic, and magnetic symmetry:
=====================================================================
 Subroutine PRICEL returns following result:
 
  LATTYP: Found a trigonal (rhomboedric) cell.
 ALAT       =     5.4297801492
 COS(alpha) =     0.5700456062
  
  Lattice vectors:
  
 A1 = (  -2.5175449649,  -1.4535109070,  -4.5860425054)
 A2 = (  -0.0000025175,   2.9070174535,  -4.5860287473)
 A3 = (   2.5175474825,  -1.4535065465,  -4.5860287473)
 
   3 primitive cells build up your supercell.
 

 Routine SETGRP: Setting up the symmetry group for a 
 hexagonal supercell.


 Subroutine GETGRP returns: Found 12 space group operations
 (whereof  6 operations were pure point group operations)
 out of a pool of 24 trial point group operations.


The magnetic configuration has the point symmetry S_6 .
 The point group associated with its full space group is D_3d.


 Subroutine INISYM returns: Found 12 space group operations
 (whereof  6 operations are pure point group operations),
 and found     3 'primitive' translations

 
 
 KPOINTS: pymatgen with grid density = 2464 / numb

Automatic generation of k-mesh.
Space group operators:
 irot       det(A)        alpha          n_x          n_y          n_z        tau_x        tau_y        tau_z
    1     1.000000     0.000000     1.000000     0.000000     0.000000     0.000000     0.000000     0.000000
    2    -1.000000     0.000000     1.000000     0.000000     0.000000     0.000000     0.000000     0.000000
    3     1.000000   120.000000     0.000000     0.000000    -1.000000     0.000000     0.000000     0.000000
    4    -1.000000   120.000000     0.000000     0.000000    -1.000000     0.000000     0.000000     0.000000
    5     1.000000   120.000000     0.000000     0.000000     1.000000     0.000000     0.000000     0.000000
    6    -1.000000   120.000000     0.000000     0.000000     1.000000     0.000000     0.000000     0.000000
    7     1.000000   180.000000     1.000000     0.000000     0.000000     0.000001    -0.000000    -0.500000
    8    -1.000000   180.000000     1.000000     0.000000     0.000000     0.000001    -0.000000    -0.500000
    9     1.000000   180.000000     0.500000    -0.866025     0.000000     0.000000     0.000000    -0.500000
   10    -1.000000   180.000000     0.500000    -0.866025     0.000000     0.000000     0.000000    -0.500000
   11     1.000000   180.000000    -0.500000    -0.866025     0.000000     0.000000     0.000000    -0.500000
   12    -1.000000   180.000000    -0.500000    -0.866025     0.000000     0.000000     0.000000    -0.500000
 
 Subroutine IBZKPT returns following result:
 ===========================================
 
 Found     14 irreducible k-points:
 
 Following reciprocal coordinates:
            Coordinates               Weight
  0.000000  0.000000  0.000000      1.000000
  0.166667  0.000000  0.000000      6.000000
  0.333333  0.000000  0.000000      6.000000
  0.500000  0.000000  0.000000      3.000000
  0.166667  0.166667  0.000000      6.000000
  0.333333  0.166667  0.000000     12.000000
  0.333333  0.333333  0.000000      2.000000
  0.000000  0.000000  0.500000      1.000000
  0.166667  0.000000  0.500000      6.000000
  0.333333  0.000000  0.500000      6.000000
  0.500000  0.000000  0.500000      3.000000
  0.166667  0.166667  0.500000      6.000000
  0.333333  0.166667  0.500000     12.000000
  0.333333  0.333333  0.500000      2.000000
 
 Following cartesian coordinates:
            Coordinates               Weight
  0.000000  0.000000  0.000000      1.000000
  0.033101  0.019111  0.000000      6.000000
  0.066202  0.038222  0.000000      6.000000
  0.099303  0.057333  0.000000      3.000000
  0.033101  0.057333  0.000000      6.000000
  0.066202  0.076443  0.000000     12.000000
  0.066202  0.114665  0.000000      2.000000
  0.000000  0.000000  0.036342      1.000000
  0.033101  0.019111  0.036342      6.000000
  0.066202  0.038222  0.036342      6.000000
  0.099303  0.057333  0.036342      3.000000
  0.033101  0.057333  0.036342      6.000000
  0.066202  0.076443  0.036342     12.000000
  0.066202  0.114665  0.036342      2.000000
 
 TETIRR: Found     71 inequivalent tetrahedra from      432


--------------------------------------------------------------------------------------------------------




 Dimension of arrays:
   k-points           NKPTS =     14   k-points in BZ     NKDIM =     14   number of bands    NBANDS=    204
   number of dos      NEDOS =    301   number of ions     NIONS =     30
   non local maximal  LDIM  =      6   non local SUM 2l+1 LMDIM =     18
   total plane-waves  NPLWV = 172800
   max r-space proj   IRMAX =   6529   max aug-charges    IRDMAX=  17140
   dimension x,y,z NGX =    40 NGY =   40 NGZ =  108
   dimension x,y,z NGXF=    80 NGYF=   80 NGZF=  216
   support grid    NGXF=    80 NGYF=   80 NGZF=  216
   ions per type =              12  18
   NGX,Y,Z   is equivalent  to a cutoff of  13.21, 13.21, 13.05 a.u.
   NGXF,Y,Z  is equivalent  to a cutoff of  26.41, 26.41, 26.10 a.u.

 SYSTEM =  unknown system                          
 POSCAR =  Fe12 O18                                

 Startparameter for this run:
   NWRITE =      2    write-flag & timer
   PREC   = accura    normal or accurate (medium, high low for compatibility)
   ISTART =      0    job   : 0-new  1-cont  2-samecut
   ICHARG =      2    charge: 1-file 2-atom 10-const
   ISPIN  =      2    spin polarized calculation?
   LNONCOLLINEAR =      F non collinear calculations
   LSORBIT =      F    spin-orbit coupling
   INIWAV =      1    electr: 0-lowe 1-rand  2-diag
   LASPH  =      F    aspherical Exc in radial PAW
   METAGGA=      F    non-selfconsistent MetaGGA calc.

 Electronic Relaxation 1
   ENCUT  =  560.0 eV  41.16 Ry    6.42 a.u.   9.72  9.72 26.55*2*pi/ulx,y,z
   ENINI  =  560.0     initial cutoff
   ENAUG  =  605.4 eV  augmentation charge cutoff
   NELM   =    100;   NELMIN=  2; NELMDL= -5     # of ELM steps 
   EDIFF  = 0.1E-06   stopping-criterion for ELM
   LREAL  =      T    real-space projection
   NLSPLINE    = F    spline interpolate recip. space projectors
   LCOMPAT=      F    compatible to vasp.4.4
   GGA_COMPAT  = T    GGA compatible to vasp.4.4-vasp.4.6
   LMAXPAW     = -100 max onsite density
   LMAXMIX     =    2 max onsite mixed and CHGCAR
   VOSKOWN=      0    Vosko Wilk Nusair interpolation
   ROPT   =   -0.00025  -0.00025
 Ionic relaxation
   EDIFFG = 0.1E-05   stopping-criterion for IOM
   NSW    =      0    number of steps for IOM
   NBLOCK =      1;   KBLOCK =      1    inner block; outer block 
   IBRION =     -1    ionic relax: 0-MD 1-quasi-New 2-CG
   NFREE  =      0    steps in history (QN), initial steepest desc. (CG)
   ISIF   =      3    stress and relaxation
   IWAVPR =     10    prediction:  0-non 1-charg 2-wave 3-comb
   ISYM   =      2    0-nonsym 1-usesym 2-fastsym
   LCORR  =      T    Harris-Foulkes like correction to forces

   POTIM  = 0.5000    time-step for ionic-motion
   TEIN   =    0.0    initial temperature
   TEBEG  =    0.0;   TEEND  =   0.0 temperature during run
   SMASS  =  -3.00    Nose mass-parameter (am)
   estimated Nose-frequenzy (Omega)   =  0.10E-29 period in steps =****** mass=  -0.579E-27a.u.
   SCALEE = 1.0000    scale energy and forces
   NPACO  =    256;   APACO  = 16.0  distance and # of slots for P.C.
   PSTRESS=    0.0 pullay stress

  Mass of Ions in am
   POMASS =  55.85 16.00
  Ionic Valenz
   ZVAL   =  14.00  6.00
  Atomic Wigner-Seitz radii
   RWIGS  =  -1.00 -1.00
  virtual crystal weights 
   VCA    =   1.00  1.00
   NELECT =     276.0000    total number of electrons
   NUPDOWN=      -1.0000    fix difference up-down

 DOS related values:
   EMIN   =  10.00;   EMAX   =-10.00  energy-range for DOS
   EFERMI =   0.00
   ISMEAR =    -5;   SIGMA  =   0.05  broadening in eV -4-tet -1-fermi 0-gaus

 Electronic relaxation 2 (details)
   IALGO  =     38    algorithm
   LDIAG  =      T    sub-space diagonalisation (order eigenvalues)
   LSUBROT=      F    optimize rotation matrix (better conditioning)
   TURBO    =      0    0=normal 1=particle mesh
   IRESTART =      0    0=no restart 2=restart with 2 vectors
   NREBOOT  =      0    no. of reboots
   NMIN     =      0    reboot dimension
   EREF     =   0.00    reference energy to select bands
   IMIX   =      4    mixing-type and parameters
     AMIX     =   0.40;   BMIX     =  1.00
     AMIX_MAG =   1.60;   BMIX_MAG =  1.00
     AMIN     =   0.10
     WC   =   100.;   INIMIX=   1;  MIXPRE=   1;  MAXMIX= -45

 Intra band minimization:
   WEIMIN = 0.0000     energy-eigenvalue tresh-hold
   EBREAK =  0.12E-09  absolut break condition
   DEPER  =   0.30     relativ break condition  

   TIME   =   0.40     timestep for ELM

  volume/ion in A,a.u.               =      10.07        67.95
  Fermi-wavevector in a.u.,A,eV,Ry     =   1.588581  3.001983 34.335534  2.523591
  Thomas-Fermi vector in A             =   2.687563
 
 Write flags
   LWAVE        =      F    write WAVECAR
   LDOWNSAMPLE  =      F    k-point downsampling of WAVECAR
   LCHARG       =      F    write CHGCAR
   LVTOT        =      F    write LOCPOT, total local potential
   LVHAR        =      F    write LOCPOT, Hartree potential only
   LELF         =      F    write electronic localiz. function (ELF)
   LORBIT       =     11    0 simple, 1 ext, 2 COOP (PROOUT), +10 PAW based schemes


 Dipole corrections
   LMONO  =      F    monopole corrections only (constant potential shift)
   LDIPOL =      F    correct potential (dipole corrections)
   IDIPOL =      0    1-x, 2-y, 3-z, 4-all directions 
   EPSILON=  1.0000000 bulk dielectric constant

 Exchange correlation treatment:
   GGA     =    --    GGA type
   LEXCH   =     8    internal setting for exchange type
   VOSKOWN=      0    Vosko Wilk Nusair interpolation
   LHFCALC =     F    Hartree Fock is set to
   LHFONE  =     F    Hartree Fock one center treatment
   AEXX    =    0.0000 exact exchange contribution

 Linear response parameters
   LEPSILON=     F    determine dielectric tensor
   LRPA    =     F    only Hartree local field effects (RPA)
   LNABLA  =     F    use nabla operator in PAW spheres
   LVEL    =     F    velocity operator in full k-point grid
   LINTERFAST=   F  fast interpolation
   KINTER  =     0    interpolate to denser k-point grid
   CSHIFT  =0.1000    complex shift for real part using Kramers Kronig
   OMEGAMAX=  -1.0    maximum frequency
   DEG_THRESHOLD= 0.2000000E-02 threshold for treating states as degnerate
   RTIME   =   -0.100 relaxation time in fs
  (WPLASMAI=    0.000 imaginary part of plasma frequency in eV, 0.658/RTIME)
   DFIELD  = 0.0000000 0.0000000 0.0000000 field for delta impulse in time
 
 Orbital magnetization related:
   ORBITALMAG=     F  switch on orbital magnetization
   LCHIMAG   =     F  perturbation theory with respect to B field
   DQ        =  0.001000  dq finite difference perturbation B field
   LLRAUG    =     F  two centre corrections for induced B field



--------------------------------------------------------------------------------------------------------


 Static calculation
 charge density and potential will be updated during run
 spin polarized calculation
 Variant of blocked Davidson
 Davidson routine will perform the subspace rotation
 perform sub-space diagonalisation
    after iterative eigenvector-optimisation
 modified Broyden-mixing scheme, WC =      100.0
 initial mixing is a Kerker type mixing with AMIX =  0.4000 and BMIX =      1.0000
 Hartree-type preconditioning will be used
 using additional bands           66
 real space projection scheme for non local part
 use partial core corrections
 calculate Harris-corrections to forces 
   (improved forces if not selfconsistent)
 use gradient corrections 
 use of overlap-Matrix (Vanderbilt PP)
 Fermi weights with tetrahedron method with Bloechl corrections


--------------------------------------------------------------------------------------------------------


  energy-cutoff  :      560.00
  volume of cell :      302.07
      direct lattice vectors                 reciprocal lattice vectors
     5.035100000  0.000000000  0.000000000     0.198605787  0.114665118  0.000000000
    -2.517550000  4.360524000  0.000000000     0.000000000  0.229330236  0.000000000
     0.000000000  0.000000000 13.758100000     0.000000000  0.000000000  0.072684455

  length of vectors
     5.035100000  5.035099558 13.758100000     0.229330216  0.229330236  0.072684455


 
 k-points in units of 2pi/SCALE and weight: pymatgen with grid density = 2464 / numb
   0.00000000  0.00000000  0.00000000       0.014
   0.03310096  0.01911085  0.00000000       0.083
   0.06620193  0.03822171  0.00000000       0.083
   0.09930289  0.05733256  0.00000000       0.042
   0.03310096  0.05733256  0.00000000       0.083
   0.06620193  0.07644341  0.00000000       0.167
   0.06620193  0.11466512  0.00000000       0.028
   0.00000000  0.00000000  0.03634223       0.014
   0.03310096  0.01911085  0.03634223       0.083
   0.06620193  0.03822171  0.03634223       0.083
   0.09930289  0.05733256  0.03634223       0.042
   0.03310096  0.05733256  0.03634223       0.083
   0.06620193  0.07644341  0.03634223       0.167
   0.06620193  0.11466512  0.03634223       0.028
 
 k-points in reciprocal lattice and weights: pymatgen with grid density = 2464 / numb
   0.00000000  0.00000000  0.00000000       0.014
   0.16666667  0.00000000  0.00000000       0.083
   0.33333333  0.00000000  0.00000000       0.083
   0.50000000  0.00000000  0.00000000       0.042
   0.16666667  0.16666667  0.00000000       0.083
   0.33333333  0.16666667  0.00000000       0.167
   0.33333333  0.33333333  0.00000000       0.028
   0.00000000  0.00000000  0.50000000       0.014
   0.16666667  0.00000000  0.50000000       0.083
   0.33333333  0.00000000  0.50000000       0.083
   0.50000000  0.00000000  0.50000000       0.042
   0.16666667  0.16666667  0.50000000       0.083
   0.33333333  0.16666667  0.50000000       0.167
   0.33333333  0.33333333  0.50000000       0.028
 
 position of ions in fractional coordinates (direct lattice) 
   0.00000000  0.00000000  0.35532000
   0.00000000  0.00000000  0.64468000
   0.33333300  0.66666700  0.02198700
   0.66666700  0.33333300  0.68865300
   0.33333300  0.66666700  0.31134700
   0.66666700  0.33333300  0.97801300
   0.00000000  0.00000000  0.14468000
   0.00000000  0.00000000  0.85532000
   0.33333300  0.66666700  0.81134700
   0.33333300  0.66666700  0.52198700
   0.66666700  0.33333300  0.47801300
   0.66666700  0.33333300  0.18865300
   0.30618000  0.00000000  0.25000000
   0.69382000  0.00000000  0.75000000
   0.63951300  0.66666700  0.91666700
   0.97284700  0.33333300  0.58333300
   0.02715300  0.66666700  0.41666700
   0.36048700  0.33333300  0.08333300
   0.00000000  0.30618000  0.25000000
   0.00000000  0.69382000  0.75000000
   0.33333300  0.97284700  0.91666700
   0.66666700  0.63951300  0.58333300
   0.33333300  0.36048700  0.41666700
   0.66666700  0.02715300  0.08333300
   0.69382000  0.69382000  0.25000000
   0.30618000  0.30618000  0.75000000
   0.02715300  0.36048700  0.91666700
   0.63951300  0.97284700  0.41666700
   0.36048700  0.02715300  0.58333300
   0.97284700  0.63951300  0.08333300
 
 position of ions in cartesian coordinates  (Angst):
   0.00000000  0.00000000  4.88852809
   0.00000000  0.00000000  8.86957191
  -0.00000252  2.90701745  0.30249934
   2.51755252  1.45350655  9.47455684
  -0.00000252  2.90701745  4.28354316
   2.51755252  1.45350655 13.45560066
   0.00000000  0.00000000  1.99052191
   0.00000000  0.00000000 11.76757809
  -0.00000252  2.90701745 11.16259316
  -0.00000252  2.90701745  7.18154934
   2.51755252  1.45350655  6.57655066
   2.51755252  1.45350655  2.59550684
   1.54164692  0.00000000  3.43952500
   3.49345308  0.00000000 10.31857500
   1.54164440  2.90701745 12.61159625
   4.05919944  1.45350655  8.02555375
  -1.54164944  2.90701745  5.73254625
   0.97590560  1.45350655  1.14650375
  -0.77082346  1.33510524  3.43952500
  -1.74672654  3.02541876 10.31857500
  -0.77082598  4.24212269 12.61159625
   1.74672906  2.78861178  8.02555375
   0.77082094  1.57191222  5.73254625
   3.28837598  0.11840131  1.14650375
   1.74672654  3.02541876  3.43952500
   0.77082346  1.33510524 10.31857500
  -0.77082598  1.57191222 12.61159625
   0.77082094  4.24212269  5.73254625
   1.74672906  0.11840131  8.02555375
   3.28837598  2.78861178  1.14650375
 


--------------------------------------------------------------------------------------------------------


 k-point  1 :   0.0000 0.0000 0.0000  plane waves:    9053
 k-point  2 :   0.1667 0.0000 0.0000  plane waves:    9101
 k-point  3 :   0.3333 0.0000 0.0000  plane waves:    9095
 k-point  4 :   0.5000 0.0000 0.0000  plane waves:    9082
 k-point  5 :   0.1667 0.1667 0.0000  plane waves:    9096
 k-point  6 :   0.3333 0.1667 0.0000  plane waves:    9087
 k-point  7 :   0.3333 0.3333 0.0000  plane waves:    9126
 k-point  8 :   0.0000 0.0000 0.5000  plane waves:    9138
 k-point  9 :   0.1667 0.0000 0.5000  plane waves:    9074
 k-point 10 :   0.3333 0.0000 0.5000  plane waves:    9066
 k-point 11 :   0.5000 0.0000 0.5000  plane waves:    9104
 k-point 12 :   0.1667 0.1667 0.5000  plane waves:    9074
 k-point 13 :   0.3333 0.1667 0.5000  plane waves:    9084
 k-point 14 :   0.3333 0.3333 0.5000  plane waves:    9090

 maximum and minimum number of plane-waves per node :      2300     2246

 maximum number of plane-waves:      9138
 maximum index in each direction: 
   IXMAX=    9   IYMAX=    9   IZMAX=   26
   IXMIN=  -10   IYMIN=  -10   IZMIN=  -27


 real space projection operators:
  total allocation   :      14731.62 KBytes
  max/ min on nodes  :       3688.94       3672.75


 parallel 3D FFT for wavefunctions:
    minimum data exchange during FFTs selected (reduces bandwidth)
 parallel 3D FFT for charge:
    minimum data exchange during FFTs selected (reduces bandwidth)


 total amount of memory used by VASP MPI-rank0    86837. kBytes
=======================================================================

   base      :      30000. kBytes
   nonlr-proj:       7841. kBytes
   fftplans  :       3518. kBytes
   grid      :       9039. kBytes
   one-center:        248. kBytes
   wavefun   :      36191. kBytes
 
     INWAV:  cpu time    0.0000: real time    0.0001
 Broyden mixing: mesh for mixing (old mesh)
   NGX = 19   NGY = 19   NGZ = 53
  (NGX  = 80   NGY  = 80   NGZ  =216)
  gives a total of  19133 points

 initial charge density was supplied:
 charge density of overlapping atoms calculated
 number of electron     276.0000000 magnetization      70.8000000
 keeping initial charge density in first step


--------------------------------------------------------------------------------------------------------


 Maximum index for non-local projection operator         1576
 Maximum index for augmentation-charges         1267 (set IRDMAX)


--------------------------------------------------------------------------------------------------------


 First call to EWALD:  gamma=   0.264
 Maximum number of real-space cells 4x 4x 2
 Maximum number of reciprocal cells 2x 2x 5

    FEWALD:  cpu time    0.0018: real time    0.0018


--------------------------------------- Iteration      1(   1)  ---------------------------------------


    POTLOK:  cpu time    0.0826: real time    0.0833
    SETDIJ:  cpu time    0.0126: real time    0.0126
     EDDAV:  cpu time   11.4233: real time   11.4667
 BZINTS: Fermi energy: 28.594308;276.000000 electrons
         Band energy:1286.001593;  BLOECHL correction: -0.132857
       DOS:  cpu time    0.0449: real time    0.0450
    --------------------------------------------
      LOOP:  cpu time   11.5633: real time   11.6076

 eigenvalue-minimisations  : 11592
 total energy-change (2. order) : 0.4302317E+04  (-0.1439358E+05)
 number of electron     276.0000000 magnetization      70.8000000
 augmentation part      276.0000000 magnetization      70.8000000

 Free energy of the ion-electron system (eV)
  ---------------------------------------------------
  alpha Z        PSCENC =      1362.55286497
  Ewald energy   TEWEN  =    -25513.06237826
  -Hartree energ DENC   =    -10371.14386018
  -exchange      EXHF   =         0.00000000
  -V(xc)+E(xc)   XCENC  =      1375.27779283
  PAW double counting   =     30224.59406688   -31333.39571732
  entropy T*S    EENTRO =         0.00000000
  eigenvalues    EBANDS =      1286.00159310
  atomic energy  EATOM  =     37271.49226966
  Solvation  Ediel_sol  =         0.00000000
  ---------------------------------------------------
  free energy    TOTEN  =      4302.31663167 eV

  energy without entropy =     4302.31663167  energy(sigma->0) =     4302.31663167


--------------------------------------------------------------------------------------------------------




--------------------------------------- Iteration      1(   2)  ---------------------------------------


     EDDAV:  cpu time   11.1920: real time   11.2242
 BZINTS: Fermi energy: 11.421506;276.000000 electrons
         Band energy:***********;  BLOECHL correction: -0.019319
       DOS:  cpu time    0.0475: real time    0.0476
    --------------------------------------------
      LOOP:  cpu time   11.2395: real time   11.2718

 eigenvalue-minimisations  : 11424
 total energy-change (2. order) :-0.3857107E+04  (-0.3505088E+04)
 number of electron     276.0000000 magnetization      70.8000000
 augmentation part      276.0000000 magnetization      70.8000000

 Free energy of the ion-electron system (eV)
  ---------------------------------------------------
  alpha Z        PSCENC =      1362.55286497
  Ewald energy   TEWEN  =    -25513.06237826
  -Hartree energ DENC   =    -10371.14386018
  -exchange      EXHF   =         0.00000000
  -V(xc)+E(xc)   XCENC  =      1375.27779283
  PAW double counting   =     30224.59406688   -31333.39571732
  entropy T*S    EENTRO =         0.00000000
  eigenvalues    EBANDS =     -2571.10563444
  atomic energy  EATOM  =     37271.49226966
  Solvation  Ediel_sol  =         0.00000000
  ---------------------------------------------------
  free energy    TOTEN  =       445.20940414 eV

  energy without entropy =      445.20940414  energy(sigma->0) =      445.20940414


--------------------------------------------------------------------------------------------------------




--------------------------------------- Iteration      1(   3)  ---------------------------------------


     EDDAV:  cpu time   11.5893: real time   11.6252
 BZINTS: Fermi energy:  8.530103;276.000000 electrons
         Band energy:***********;  BLOECHL correction:  0.000000
       DOS:  cpu time    0.0071: real time    0.0071
    --------------------------------------------
      LOOP:  cpu time   11.5964: real time   11.6323

 eigenvalue-minimisations  : 11892
 total energy-change (2. order) :-0.6958538E+03  (-0.6228183E+03)
 number of electron     276.0000000 magnetization      70.8000000
 augmentation part      276.0000000 magnetization      70.8000000

 Free energy of the ion-electron system (eV)
  ---------------------------------------------------
  alpha Z        PSCENC =      1362.55286497
  Ewald energy   TEWEN  =    -25513.06237826
  -Hartree energ DENC   =    -10371.14386018
  -exchange      EXHF   =         0.00000000
  -V(xc)+E(xc)   XCENC  =      1375.27779283
  PAW double counting   =     30224.59406688   -31333.39571732
  entropy T*S    EENTRO =         0.00000000
  eigenvalues    EBANDS =     -3266.95941111
  atomic energy  EATOM  =     37271.49226966
  Solvation  Ediel_sol  =         0.00000000
  ---------------------------------------------------
  free energy    TOTEN  =      -250.64437253 eV

  energy without entropy =     -250.64437253  energy(sigma->0) =     -250.64437253


--------------------------------------------------------------------------------------------------------




--------------------------------------- Iteration      1(   4)  ---------------------------------------


     EDDAV:  cpu time   12.6746: real time   12.7104
 BZINTS: Fermi energy:  8.232179;276.000000 electrons
         Band energy:***********;  BLOECHL correction:  0.000000
       DOS:  cpu time    0.0061: real time    0.0061
    --------------------------------------------
      LOOP:  cpu time   12.6806: real time   12.7165

 eigenvalue-minimisations  : 12936
 total energy-change (2. order) :-0.4328975E+02  (-0.4279595E+02)
 number of electron     276.0000000 magnetization      70.8000000
 augmentation part      276.0000000 magnetization      70.8000000

 Free energy of the ion-electron system (eV)
  ---------------------------------------------------
  alpha Z        PSCENC =      1362.55286497
  Ewald energy   TEWEN  =    -25513.06237826
  -Hartree energ DENC   =    -10371.14386018
  -exchange      EXHF   =         0.00000000
  -V(xc)+E(xc)   XCENC  =      1375.27779283
  PAW double counting   =     30224.59406688   -31333.39571732
  entropy T*S    EENTRO =         0.00000000
  eigenvalues    EBANDS =     -3310.24916204
  atomic energy  EATOM  =     37271.49226966
  Solvation  Ediel_sol  =         0.00000000
  ---------------------------------------------------
  free energy    TOTEN  =      -293.93412346 eV

  energy without entropy =     -293.93412346  energy(sigma->0) =     -293.93412346


--------------------------------------------------------------------------------------------------------




--------------------------------------- Iteration      1(   5)  ---------------------------------------


     EDDAV:  cpu time   12.5519: real time   12.5869
 BZINTS: Fermi energy:  8.317022;276.000000 electrons
         Band energy:***********;  BLOECHL correction:  0.000000
       DOS:  cpu time    0.0072: real time    0.0072
    CHARGE:  cpu time    0.4307: real time    0.4321
    MIXING:  cpu time    0.0019: real time    0.0019
    --------------------------------------------
      LOOP:  cpu time   12.9916: real time   13.0281

 eigenvalue-minimisations  : 12768
 total energy-change (2. order) :-0.4750192E+00  (-0.4738407E+00)
 number of electron     276.0000073 magnetization      67.8179408
 augmentation part      108.0328861 magnetization      47.0424992

 Broyden mixing:
  rms(total) = 0.80942E+01    rms(broyden)= 0.80938E+01
  rms(prec ) = 0.88404E+01
  weight for this iteration     100.00

 Free energy of the ion-electron system (eV)
  ---------------------------------------------------
  alpha Z        PSCENC =      1362.55286497
  Ewald energy   TEWEN  =    -25513.06237826
  -Hartree energ DENC   =    -10371.14386018
  -exchange      EXHF   =         0.00000000
  -V(xc)+E(xc)   XCENC  =      1375.27779283
  PAW double counting   =     30224.59406688   -31333.39571732
  entropy T*S    EENTRO =         0.00000000
  eigenvalues    EBANDS =     -3310.72418124
  atomic energy  EATOM  =     37271.49226966
  Solvation  Ediel_sol  =         0.00000000
  ---------------------------------------------------
  free energy    TOTEN  =      -294.40914267 eV

  energy without entropy =     -294.40914267  energy(sigma->0) =     -294.40914267


--------------------------------------------------------------------------------------------------------




--------------------------------------- Iteration      1(   6)  ---------------------------------------


    POTLOK:  cpu time    0.0776: real time    0.0781
    SETDIJ:  cpu time    0.0126: real time    0.0126
     EDDAV:  cpu time   14.1476: real time   14.1919
 BZINTS: Fermi energy:  5.536504;276.000000 electrons
         Band energy:***********;  BLOECHL correction: -0.054147
       DOS:  cpu time    0.0422: real time    0.0423
    CHARGE:  cpu time    0.4415: real time    0.4427
    MIXING:  cpu time    0.0020: real time    0.0020
    --------------------------------------------
      LOOP:  cpu time   14.7235: real time   14.7696

 eigenvalue-minimisations  : 14784
 total energy-change (2. order) : 0.5909324E+02  (-0.2533831E+02)
 number of electron     276.0000044 magnetization      62.9846297
 augmentation part      120.7618127 magnetization      54.4295432

 Broyden mixing:
  rms(total) = 0.91439E+01    rms(broyden)= 0.91429E+01
  rms(prec ) = 0.97955E+01
  weight for this iteration     100.00

 eigenvalues of (default mixing * dielectric matrix)
  average eigenvalue GAMMA=   0.3179
  0.3179

 Free energy of the ion-electron system (eV)
  ---------------------------------------------------
  alpha Z        PSCENC =      1362.55286497
  Ewald energy   TEWEN  =    -25513.06237826
  -Hartree energ DENC   =     -9966.09301826
  -exchange      EXHF   =         0.00000000
  -V(xc)+E(xc)   XCENC  =      1376.67151885
  PAW double counting   =     31433.93933431   -32500.92652517
  entropy T*S    EENTRO =         0.00000000
  eigenvalues    EBANDS =     -3699.88996846
  atomic energy  EATOM  =     37271.49226966
  Solvation  Ediel_sol  =         0.00000000
  ---------------------------------------------------
  free energy    TOTEN  =      -235.31590236 eV

  energy without entropy =     -235.31590236  energy(sigma->0) =     -235.31590236


--------------------------------------------------------------------------------------------------------




--------------------------------------- Iteration      1(   7)  ---------------------------------------


    POTLOK:  cpu time    0.0765: real time    0.0768
    SETDIJ:  cpu time    0.0124: real time    0.0124
     EDDAV:  cpu time   11.9374: real time   11.9727
 BZINTS: Fermi energy:  7.090090;276.000000 electrons
         Band energy:***********;  BLOECHL correction: -0.035839
       DOS:  cpu time    0.0494: real time    0.0495
    CHARGE:  cpu time    0.4394: real time    0.4408
    MIXING:  cpu time    0.0017: real time    0.0017
    --------------------------------------------
      LOOP:  cpu time   12.5168: real time   12.5539

 eigenvalue-minimisations  : 12204
 total energy-change (2. order) : 0.2417142E+02  (-0.1148347E+02)
 number of electron     276.0000061 magnetization      58.8075826
 augmentation part      109.3744842 magnetization      40.2733343

 Broyden mixing:
  rms(total) = 0.43798E+01    rms(broyden)= 0.43794E+01
  rms(prec ) = 0.45405E+01
  weight for this iteration     100.00

 eigenvalues of (default mixing * dielectric matrix)
  average eigenvalue GAMMA=   0.6795
  1.0300  0.3291

 Free energy of the ion-electron system (eV)
  ---------------------------------------------------
  alpha Z        PSCENC =      1362.55286497
  Ewald energy   TEWEN  =    -25513.06237826
  -Hartree energ DENC   =    -10208.53349748
  -exchange      EXHF   =         0.00000000
  -V(xc)+E(xc)   XCENC  =      1372.54119930
  PAW double counting   =     32866.67694658   -33995.28873481
  entropy T*S    EENTRO =         0.00000000
  eigenvalues    EBANDS =     -3367.52314768
  atomic energy  EATOM  =     37271.49226966
  Solvation  Ediel_sol  =         0.00000000
  ---------------------------------------------------
  free energy    TOTEN  =      -211.14447771 eV

  energy without entropy =     -211.14447771  energy(sigma->0) =     -211.14447771


--------------------------------------------------------------------------------------------------------




--------------------------------------- Iteration      1(   8)  ---------------------------------------


    POTLOK:  cpu time    0.0771: real time    0.0774
    SETDIJ:  cpu time    0.0124: real time    0.0124
     EDDAV:  cpu time   12.0894: real time   12.1271
 BZINTS: Fermi energy:  6.458715;276.000000 electrons
         Band energy:***********;  BLOECHL correction: -0.034235
       DOS:  cpu time    0.0495: real time    0.0496
    CHARGE:  cpu time    0.4396: real time    0.4409
    MIXING:  cpu time    0.0020: real time    0.0020
    --------------------------------------------
      LOOP:  cpu time   12.6700: real time   12.7095

 eigenvalue-minimisations  : 12132
 total energy-change (2. order) :-0.7124217E+01  (-0.2139929E+01)
 number of electron     276.0000060 magnetization      51.8870224
 augmentation part      111.2636598 magnetization      34.9715814

 Broyden mixing:
  rms(total) = 0.26391E+01    rms(broyden)= 0.26391E+01
  rms(prec ) = 0.26995E+01
  weight for this iteration     100.00

 eigenvalues of (default mixing * dielectric matrix)
  average eigenvalue GAMMA=   1.0880
  2.2928  0.5914  0.3798

 Free energy of the ion-electron system (eV)
  ---------------------------------------------------
  alpha Z        PSCENC =      1362.55286497
  Ewald energy   TEWEN  =    -25513.06237826
  -Hartree energ DENC   =    -10074.84970847
  -exchange      EXHF   =         0.00000000
  -V(xc)+E(xc)   XCENC  =      1366.57280291
  PAW double counting   =     34232.48254417   -35373.04991933
  entropy T*S    EENTRO =         0.00000000
  eigenvalues    EBANDS =     -3490.40717053
  atomic energy  EATOM  =     37271.49226966
  Solvation  Ediel_sol  =         0.00000000
  ---------------------------------------------------
  free energy    TOTEN  =      -218.26869489 eV

  energy without entropy =     -218.26869489  energy(sigma->0) =     -218.26869489


--------------------------------------------------------------------------------------------------------




--------------------------------------- Iteration      1(   9)  ---------------------------------------


    POTLOK:  cpu time    0.0803: real time    0.0808
    SETDIJ:  cpu time    0.0129: real time    0.0129
     EDDAV:  cpu time   12.3210: real time   12.3591
 BZINTS: Fermi energy:  5.870748;276.000000 electrons
         Band energy:***********;  BLOECHL correction: -0.039932
       DOS:  cpu time    0.0495: real time    0.0497
    CHARGE:  cpu time    0.4384: real time    0.4396
    MIXING:  cpu time    0.0020: real time    0.0020
    --------------------------------------------
      LOOP:  cpu time   12.9042: real time   12.9441

 eigenvalue-minimisations  : 12588
 total energy-change (2. order) :-0.4276102E+01  (-0.8419108E+00)
 number of electron     276.0000055 magnetization      50.9445696
 augmentation part      114.2214878 magnetization      37.9165763

 Broyden mixing:
  rms(total) = 0.27753E+01    rms(broyden)= 0.27752E+01
  rms(prec ) = 0.29128E+01
  weight for this iteration     100.00

 eigenvalues of (default mixing * dielectric matrix)
  average eigenvalue GAMMA=   1.0998
  2.8474  0.8041  0.3739  0.3739

 Free energy of the ion-electron system (eV)
  ---------------------------------------------------
  alpha Z        PSCENC =      1362.55286497
  Ewald energy   TEWEN  =    -25513.06237826
  -Hartree energ DENC   =     -9931.51887737
  -exchange      EXHF   =         0.00000000
  -V(xc)+E(xc)   XCENC  =      1362.32874577
  PAW double counting   =     36541.29824545   -37710.76409587
  entropy T*S    EENTRO =         0.00000000
  eigenvalues    EBANDS =     -3604.87157161
  atomic energy  EATOM  =     37271.49226966
  Solvation  Ediel_sol  =         0.00000000
  ---------------------------------------------------
  free energy    TOTEN  =      -222.54479724 eV

  energy without entropy =     -222.54479724  energy(sigma->0) =     -222.54479724


--------------------------------------------------------------------------------------------------------




--------------------------------------- Iteration      1(  10)  ---------------------------------------


    POTLOK:  cpu time    0.0756: real time    0.0761
    SETDIJ:  cpu time    0.0123: real time    0.0123
     EDDAV:  cpu time   12.2149: real time   12.2528
 BZINTS: Fermi energy:  5.957705;276.000000 electrons
         Band energy:***********;  BLOECHL correction: -0.037562
       DOS:  cpu time    0.0478: real time    0.0480
    CHARGE:  cpu time    0.4394: real time    0.4407
    MIXING:  cpu time    0.0021: real time    0.0021
    --------------------------------------------
      LOOP:  cpu time   12.7921: real time   12.8319

 eigenvalue-minimisations  : 12540
 total energy-change (2. order) : 0.4467756E+00  (-0.2511441E+00)
 number of electron     276.0000055 magnetization      50.6278251
 augmentation part      113.4485361 magnetization      37.3402348

 Broyden mixing:
  rms(total) = 0.18700E+01    rms(broyden)= 0.18700E+01
  rms(prec ) = 0.19829E+01
  weight for this iteration     100.00

 eigenvalues of (default mixing * dielectric matrix)
  average eigenvalue GAMMA=   1.0197
  2.6120  0.3729  0.7702  0.6716  0.6716

 Free energy of the ion-electron system (eV)
  ---------------------------------------------------
  alpha Z        PSCENC =      1362.55286497
  Ewald energy   TEWEN  =    -25513.06237826
  -Hartree energ DENC   =     -9948.84088730
  -exchange      EXHF   =         0.00000000
  -V(xc)+E(xc)   XCENC  =      1360.90538881
  PAW double counting   =     36547.53349409   -37719.98741994
  entropy T*S    EENTRO =         0.00000000
  eigenvalues    EBANDS =     -3582.69135368
  atomic energy  EATOM  =     37271.49226966
  Solvation  Ediel_sol  =         0.00000000
  ---------------------------------------------------
  free energy    TOTEN  =      -222.09802164 eV

  energy without entropy =     -222.09802164  energy(sigma->0) =     -222.09802164


--------------------------------------------------------------------------------------------------------




--------------------------------------- Iteration      1(  11)  ---------------------------------------


    POTLOK:  cpu time    0.0762: real time    0.0765
    SETDIJ:  cpu time    0.0123: real time    0.0124
     EDDAV:  cpu time   13.4442: real time   13.4861
 BZINTS: Fermi energy:  6.020242;276.000000 electrons
         Band energy:***********;  BLOECHL correction: -0.034112
       DOS:  cpu time    0.0495: real time    0.0496
    CHARGE:  cpu time    0.4421: real time    0.4431
    MIXING:  cpu time    0.0020: real time    0.0020
    --------------------------------------------
      LOOP:  cpu time   14.0263: real time   14.0696

 eigenvalue-minimisations  : 14196
 total energy-change (2. order) : 0.5835169E+00  (-0.2465554E-01)
 number of electron     276.0000056 magnetization      49.3057764
 augmentation part      113.0204379 magnetization      35.6248560

 Broyden mixing:
  rms(total) = 0.12197E+01    rms(broyden)= 0.12197E+01
  rms(prec ) = 0.12941E+01
  weight for this iteration     100.00

 eigenvalues of (default mixing * dielectric matrix)
  average eigenvalue GAMMA=   1.0465
  2.5807  0.9770  0.9770  0.3777  0.7980  0.5683

 Free energy of the ion-electron system (eV)
  ---------------------------------------------------
  alpha Z        PSCENC =      1362.55286497
  Ewald energy   TEWEN  =    -25513.06237826
  -Hartree energ DENC   =     -9960.06312791
  -exchange      EXHF   =         0.00000000
  -V(xc)+E(xc)   XCENC  =      1360.21810987
  PAW double counting   =     36375.77930973   -37546.20980628
  entropy T*S    EENTRO =         0.00000000
  eigenvalues    EBANDS =     -3572.22174650
  atomic energy  EATOM  =     37271.49226966
  Solvation  Ediel_sol  =         0.00000000
  ---------------------------------------------------
  free energy    TOTEN  =      -221.51450472 eV

  energy without entropy =     -221.51450472  energy(sigma->0) =     -221.51450472


--------------------------------------------------------------------------------------------------------




--------------------------------------- Iteration      1(  12)  ---------------------------------------


    POTLOK:  cpu time    0.0767: real time    0.0771
    SETDIJ:  cpu time    0.0123: real time    0.0124
     EDDAV:  cpu time   14.1900: real time   14.2311
 BZINTS: Fermi energy:  6.081176;276.000000 electrons
         Band energy:***********;  BLOECHL correction: -0.033672
       DOS:  cpu time    0.0473: real time    0.0474
    CHARGE:  cpu time    0.4397: real time    0.4408
    MIXING:  cpu time    0.0022: real time    0.0022
    --------------------------------------------
      LOOP:  cpu time   14.7683: real time   14.8109

 eigenvalue-minimisations  : 15132
 total energy-change (2. order) : 0.2015699E+00  (-0.1956877E-01)
 number of electron     276.0000057 magnetization      46.8197689
 augmentation part      112.6995861 magnetization      33.0418907

 Broyden mixing:
  rms(total) = 0.85309E+00    rms(broyden)= 0.85308E+00
  rms(prec ) = 0.89495E+00
  weight for this iteration     100.00

 eigenvalues of (default mixing * dielectric matrix)
  average eigenvalue GAMMA=   1.0996
  1.9694  1.9694  1.3605  0.3764  0.7482  0.6367  0.6367

 Free energy of the ion-electron system (eV)
  ---------------------------------------------------
  alpha Z        PSCENC =      1362.55286497
  Ewald energy   TEWEN  =    -25513.06237826
  -Hartree energ DENC   =     -9973.39376707
  -exchange      EXHF   =         0.00000000
  -V(xc)+E(xc)   XCENC  =      1359.59344382
  PAW double counting   =     36261.51702580   -37430.94175243
  entropy T*S    EENTRO =         0.00000000
  eigenvalues    EBANDS =     -3559.07064133
  atomic energy  EATOM  =     37271.49226966
  Solvation  Ediel_sol  =         0.00000000
  ---------------------------------------------------
  free energy    TOTEN  =      -221.31293484 eV

  energy without entropy =     -221.31293484  energy(sigma->0) =     -221.31293484


--------------------------------------------------------------------------------------------------------




--------------------------------------- Iteration      1(  13)  ---------------------------------------


    POTLOK:  cpu time    0.0764: real time    0.0768
    SETDIJ:  cpu time    0.0124: real time    0.0124
     EDDAV:  cpu time   13.2357: real time   13.2705
 BZINTS: Fermi energy:  6.143215;276.000000 electrons
         Band energy:***********;  BLOECHL correction: -0.034491
       DOS:  cpu time    0.0507: real time    0.0509
    CHARGE:  cpu time    0.4410: real time    0.4420
    MIXING:  cpu time    0.0024: real time    0.0024
    --------------------------------------------
      LOOP:  cpu time   13.8185: real time   13.8550

 eigenvalue-minimisations  : 13956
 total energy-change (2. order) : 0.5123482E-02  (-0.1176750E-01)
 number of electron     276.0000057 magnetization      43.8832339
 augmentation part      112.4155645 magnetization      30.3493793

 Broyden mixing:
  rms(total) = 0.46067E+00    rms(broyden)= 0.46066E+00
  rms(prec ) = 0.48373E+00
  weight for this iteration     100.00

 eigenvalues of (default mixing * dielectric matrix)
  average eigenvalue GAMMA=   1.4016
  3.5459  3.3787  0.3767  0.9331  0.9331  0.7216  0.7216  0.6021

 Free energy of the ion-electron system (eV)
  ---------------------------------------------------
  alpha Z        PSCENC =      1362.55286497
  Ewald energy   TEWEN  =    -25513.06237826
  -Hartree energ DENC   =     -9991.91112697
  -exchange      EXHF   =         0.00000000
  -V(xc)+E(xc)   XCENC  =      1358.75164215
  PAW double counting   =     36027.43322289   -37193.78136124
  entropy T*S    EENTRO =         0.00000000
  eigenvalues    EBANDS =     -3542.78294457
  atomic energy  EATOM  =     37271.49226966
  Solvation  Ediel_sol  =         0.00000000
  ---------------------------------------------------
  free energy    TOTEN  =      -221.30781136 eV

  energy without entropy =     -221.30781136  energy(sigma->0) =     -221.30781136


--------------------------------------------------------------------------------------------------------




--------------------------------------- Iteration      1(  14)  ---------------------------------------


    POTLOK:  cpu time    0.0763: real time    0.0771
    SETDIJ:  cpu time    0.0125: real time    0.0125
     EDDAV:  cpu time   13.9787: real time   14.0146
 BZINTS: Fermi energy:  6.176069;276.000000 electrons
         Band energy:***********;  BLOECHL correction: -0.032732
       DOS:  cpu time    0.0494: real time    0.0495
    CHARGE:  cpu time    0.4403: real time    0.4415
    MIXING:  cpu time    0.0024: real time    0.0024
    --------------------------------------------
      LOOP:  cpu time   14.5596: real time   14.5976

 eigenvalue-minimisations  : 14820
 total energy-change (2. order) :-0.4731391E-01  (-0.1652991E-01)
 number of electron     276.0000058 magnetization      42.9977277
 augmentation part      112.2268805 magnetization      29.8473043

 Broyden mixing:
  rms(total) = 0.16961E+00    rms(broyden)= 0.16953E+00
  rms(prec ) = 0.17638E+00
  weight for this iteration     100.00

 eigenvalues of (default mixing * dielectric matrix)
  average eigenvalue GAMMA=   1.5119
  5.3773  2.7708  1.2575  0.3766  0.8454  0.8454  0.8739  0.6301  0.6301

 Free energy of the ion-electron system (eV)
  ---------------------------------------------------
  alpha Z        PSCENC =      1362.55286497
  Ewald energy   TEWEN  =    -25513.06237826
  -Hartree energ DENC   =    -10004.64675234
  -exchange      EXHF   =         0.00000000
  -V(xc)+E(xc)   XCENC  =      1357.64600128
  PAW double counting   =     35824.73533082   -36988.05596948
  entropy T*S    EENTRO =         0.00000000
  eigenvalues    EBANDS =     -3532.01649192
  atomic energy  EATOM  =     37271.49226966
  Solvation  Ediel_sol  =         0.00000000
  ---------------------------------------------------
  free energy    TOTEN  =      -221.35512527 eV

  energy without entropy =     -221.35512527  energy(sigma->0) =     -221.35512527


--------------------------------------------------------------------------------------------------------




--------------------------------------- Iteration      1(  15)  ---------------------------------------


    POTLOK:  cpu time    0.0760: real time    0.0763
    SETDIJ:  cpu time    0.0126: real time    0.0126
     EDDAV:  cpu time   12.1612: real time   12.1969
 BZINTS: Fermi energy:  6.159649;276.000000 electrons
         Band energy:***********;  BLOECHL correction: -0.033078
       DOS:  cpu time    0.0484: real time    0.0485
    CHARGE:  cpu time    0.4393: real time    0.4404
    MIXING:  cpu time    0.0024: real time    0.0024
    --------------------------------------------
      LOOP:  cpu time   12.7398: real time   12.7771

 eigenvalue-minimisations  : 12336
 total energy-change (2. order) :-0.1935005E-01  (-0.6572164E-02)
 number of electron     276.0000058 magnetization      42.5759915
 augmentation part      112.2891434 magnetization      29.6019630

 Broyden mixing:
  rms(total) = 0.13857E+00    rms(broyden)= 0.13855E+00
  rms(prec ) = 0.14710E+00
  weight for this iteration     100.00

 eigenvalues of (default mixing * dielectric matrix)
  average eigenvalue GAMMA=   1.5446
  6.1031  2.8440  1.3658  1.0800  0.3767  0.8468  0.8468  0.6934  0.6934  0.5957

 Free energy of the ion-electron system (eV)
  ---------------------------------------------------
  alpha Z        PSCENC =      1362.55286497
  Ewald energy   TEWEN  =    -25513.06237826
  -Hartree energ DENC   =    -10002.83802593
  -exchange      EXHF   =         0.00000000
  -V(xc)+E(xc)   XCENC  =      1357.15417637
  PAW double counting   =     35815.73367082   -36978.73467049
  entropy T*S    EENTRO =         0.00000000
  eigenvalues    EBANDS =     -3533.67238247
  atomic energy  EATOM  =     37271.49226966
  Solvation  Ediel_sol  =         0.00000000
  ---------------------------------------------------
  free energy    TOTEN  =      -221.37447532 eV

  energy without entropy =     -221.37447532  energy(sigma->0) =     -221.37447532


--------------------------------------------------------------------------------------------------------




--------------------------------------- Iteration      1(  16)  ---------------------------------------


    POTLOK:  cpu time    0.0759: real time    0.0764
    SETDIJ:  cpu time    0.0126: real time    0.0126
     EDDAV:  cpu time   13.3090: real time   13.3481
 BZINTS: Fermi energy:  6.182446;276.000000 electrons
         Band energy:***********;  BLOECHL correction: -0.032899
       DOS:  cpu time    0.0493: real time    0.0494
    CHARGE:  cpu time    0.4404: real time    0.4416
    MIXING:  cpu time    0.0028: real time    0.0028
    --------------------------------------------
      LOOP:  cpu time   13.8900: real time   13.9310

 eigenvalue-minimisations  : 13968
 total energy-change (2. order) : 0.5325693E-02  (-0.9825000E-03)
 number of electron     276.0000058 magnetization      42.4591880
 augmentation part      112.1930246 magnetization      29.4761402

 Broyden mixing:
  rms(total) = 0.32042E-01    rms(broyden)= 0.32022E-01
  rms(prec ) = 0.33305E-01
  weight for this iteration     100.00

 eigenvalues of (default mixing * dielectric matrix)
  average eigenvalue GAMMA=   1.5321
  6.2757  2.7902  1.3115  1.3115  1.0793  0.3767  0.8170  0.8170  0.7336  0.7336
  0.6069

 Free energy of the ion-electron system (eV)
  ---------------------------------------------------
  alpha Z        PSCENC =      1362.55286497
  Ewald energy   TEWEN  =    -25513.06237826
  -Hartree energ DENC   =    -10007.64294361
  -exchange      EXHF   =         0.00000000
  -V(xc)+E(xc)   XCENC  =      1357.06131153
  PAW double counting   =     35775.27457942   -36938.23005805
  entropy T*S    EENTRO =         0.00000000
  eigenvalues    EBANDS =     -3528.81479528
  atomic energy  EATOM  =     37271.49226966
  Solvation  Ediel_sol  =         0.00000000
  ---------------------------------------------------
  free energy    TOTEN  =      -221.36914962 eV

  energy without entropy =     -221.36914962  energy(sigma->0) =     -221.36914962


--------------------------------------------------------------------------------------------------------




--------------------------------------- Iteration      1(  17)  ---------------------------------------


    POTLOK:  cpu time    0.0773: real time    0.0778
    SETDIJ:  cpu time    0.0124: real time    0.0125
     EDDAV:  cpu time   11.9158: real time   11.9523
 BZINTS: Fermi energy:  6.182909;276.000000 electrons
         Band energy:***********;  BLOECHL correction: -0.032851
       DOS:  cpu time    0.0471: real time    0.0473
    CHARGE:  cpu time    0.4365: real time    0.4378
    MIXING:  cpu time    0.0028: real time    0.0028
    --------------------------------------------
      LOOP:  cpu time   12.4919: real time   12.5304

 eigenvalue-minimisations  : 12132
 total energy-change (2. order) :-0.7652710E-03  (-0.4413295E-03)
 number of electron     276.0000058 magnetization      42.3722152
 augmentation part      112.1926065 magnetization      29.4026890

 Broyden mixing:
  rms(total) = 0.17458E-01    rms(broyden)= 0.17452E-01
  rms(prec ) = 0.18009E-01
  weight for this iteration     100.00

 eigenvalues of (default mixing * dielectric matrix)
  average eigenvalue GAMMA=   1.5548
  6.4454  2.7558  2.4564  1.0769  1.0769  0.3767  0.8906  0.8906  0.7159  0.7159
  0.6025  0.6545

 Free energy of the ion-electron system (eV)
  ---------------------------------------------------
  alpha Z        PSCENC =      1362.55286497
  Ewald energy   TEWEN  =    -25513.06237826
  -Hartree energ DENC   =    -10007.24550308
  -exchange      EXHF   =         0.00000000
  -V(xc)+E(xc)   XCENC  =      1357.00725582
  PAW double counting   =     35795.73689101   -36959.25072034
  entropy T*S    EENTRO =         0.00000000
  eigenvalues    EBANDS =     -3528.60059468
  atomic energy  EATOM  =     37271.49226966
  Solvation  Ediel_sol  =         0.00000000
  ---------------------------------------------------
  free energy    TOTEN  =      -221.36991489 eV

  energy without entropy =     -221.36991489  energy(sigma->0) =     -221.36991489


--------------------------------------------------------------------------------------------------------




--------------------------------------- Iteration      1(  18)  ---------------------------------------


    POTLOK:  cpu time    0.0764: real time    0.0767
    SETDIJ:  cpu time    0.0124: real time    0.0124
     EDDAV:  cpu time   13.0999: real time   13.1362
 BZINTS: Fermi energy:  6.183080;276.000000 electrons
         Band energy:***********;  BLOECHL correction: -0.032985
       DOS:  cpu time    0.0482: real time    0.0483
    CHARGE:  cpu time    0.4369: real time    0.4381
    MIXING:  cpu time    0.0028: real time    0.0028
    --------------------------------------------
      LOOP:  cpu time   13.6765: real time   13.7145

 eigenvalue-minimisations  : 13704
 total energy-change (2. order) :-0.2576077E-03  (-0.1935930E-04)
 number of electron     276.0000058 magnetization      42.3197549
 augmentation part      112.1888004 magnetization      29.3667952

 Broyden mixing:
  rms(total) = 0.96992E-02    rms(broyden)= 0.96953E-02
  rms(prec ) = 0.10096E-01
  weight for this iteration     100.00

 eigenvalues of (default mixing * dielectric matrix)
  average eigenvalue GAMMA=   1.5245
  6.5742  2.8290  2.4530  1.1494  1.1494  0.9558  0.9558  0.3767  0.7331  0.7331
  0.6954  0.6068  0.6068

 Free energy of the ion-electron system (eV)
  ---------------------------------------------------
  alpha Z        PSCENC =      1362.55286497
  Ewald energy   TEWEN  =    -25513.06237826
  -Hartree energ DENC   =    -10007.45406617
  -exchange      EXHF   =         0.00000000
  -V(xc)+E(xc)   XCENC  =      1356.96394395
  PAW double counting   =     35794.98908640   -36958.56430118
  entropy T*S    EENTRO =         0.00000000
  eigenvalues    EBANDS =     -3528.28759187
  atomic energy  EATOM  =     37271.49226966
  Solvation  Ediel_sol  =         0.00000000
  ---------------------------------------------------
  free energy    TOTEN  =      -221.37017250 eV

  energy without entropy =     -221.37017250  energy(sigma->0) =     -221.37017250


--------------------------------------------------------------------------------------------------------




--------------------------------------- Iteration      1(  19)  ---------------------------------------


    POTLOK:  cpu time    0.0760: real time    0.0768
    SETDIJ:  cpu time    0.0123: real time    0.0124
     EDDAV:  cpu time   13.3712: real time   13.4050
 BZINTS: Fermi energy:  6.184106;276.000000 electrons
         Band energy:***********;  BLOECHL correction: -0.033062
       DOS:  cpu time    0.0471: real time    0.0472
    CHARGE:  cpu time    0.4343: real time    0.4355
    MIXING:  cpu time    0.0029: real time    0.0029
    --------------------------------------------
      LOOP:  cpu time   13.9439: real time   13.9798

 eigenvalue-minimisations  : 13980
 total energy-change (2. order) :-0.7402483E-04  (-0.8674010E-05)
 number of electron     276.0000058 magnetization      42.3058522
 augmentation part      112.1839774 magnetization      29.3612330

 Broyden mixing:
  rms(total) = 0.23203E-02    rms(broyden)= 0.23140E-02
  rms(prec ) = 0.24667E-02
  weight for this iteration     100.00

 eigenvalues of (default mixing * dielectric matrix)
  average eigenvalue GAMMA=   1.5127
  6.6593  2.8555  2.4146  1.4179  1.1582  1.0087  1.0087  0.3767  0.7790  0.7790
  0.7492  0.7492  0.6106  0.6106

 Free energy of the ion-electron system (eV)
  ---------------------------------------------------
  alpha Z        PSCENC =      1362.55286497
  Ewald energy   TEWEN  =    -25513.06237826
  -Hartree energ DENC   =    -10007.80784667
  -exchange      EXHF   =         0.00000000
  -V(xc)+E(xc)   XCENC  =      1356.94310311
  PAW double counting   =     35790.49143438   -36954.01433417
  entropy T*S    EENTRO =         0.00000000
  eigenvalues    EBANDS =     -3527.96535955
  atomic energy  EATOM  =     37271.49226966
  Solvation  Ediel_sol  =         0.00000000
  ---------------------------------------------------
  free energy    TOTEN  =      -221.37024653 eV

  energy without entropy =     -221.37024653  energy(sigma->0) =     -221.37024653


--------------------------------------------------------------------------------------------------------




--------------------------------------- Iteration      1(  20)  ---------------------------------------


    POTLOK:  cpu time    0.0747: real time    0.0750
    SETDIJ:  cpu time    0.0123: real time    0.0123
     EDDAV:  cpu time   13.0088: real time   13.0431
 BZINTS: Fermi energy:  6.184546;276.000000 electrons
         Band energy:***********;  BLOECHL correction: -0.033076
       DOS:  cpu time    0.0486: real time    0.0487
    CHARGE:  cpu time    0.4359: real time    0.4370
    MIXING:  cpu time    0.0030: real time    0.0030
    --------------------------------------------
      LOOP:  cpu time   13.5833: real time   13.6190

 eigenvalue-minimisations  : 13188
 total energy-change (2. order) :-0.1491040E-04  (-0.3240331E-05)
 number of electron     276.0000058 magnetization      42.3014421
 augmentation part      112.1824418 magnetization      29.3586099

 Broyden mixing:
  rms(total) = 0.90763E-03    rms(broyden)= 0.90545E-03
  rms(prec ) = 0.93726E-03
  weight for this iteration     100.00

 eigenvalues of (default mixing * dielectric matrix)
  average eigenvalue GAMMA=   1.4880
  6.6874  2.9328  2.4051  1.6802  0.3767  1.0170  1.0170  1.0161  1.0161  0.7344
  0.7344  0.7769  0.6027  0.6613  0.6613

 Free energy of the ion-electron system (eV)
  ---------------------------------------------------
  alpha Z        PSCENC =      1362.55286497
  Ewald energy   TEWEN  =    -25513.06237826
  -Hartree energ DENC   =    -10007.91458386
  -exchange      EXHF   =         0.00000000
  -V(xc)+E(xc)   XCENC  =      1356.93667477
  PAW double counting   =     35789.90162952   -36953.42388786
  entropy T*S    EENTRO =         0.00000000
  eigenvalues    EBANDS =     -3527.85285038
  atomic energy  EATOM  =     37271.49226966
  Solvation  Ediel_sol  =         0.00000000
  ---------------------------------------------------
  free energy    TOTEN  =      -221.37026144 eV

  energy without entropy =     -221.37026144  energy(sigma->0) =     -221.37026144


--------------------------------------------------------------------------------------------------------




--------------------------------------- Iteration      1(  21)  ---------------------------------------


    POTLOK:  cpu time    0.0753: real time    0.0756
    SETDIJ:  cpu time    0.0122: real time    0.0122
     EDDAV:  cpu time   11.8867: real time   11.9233
 BZINTS: Fermi energy:  6.184697;276.000000 electrons
         Band energy:***********;  BLOECHL correction: -0.033084
       DOS:  cpu time    0.0449: real time    0.0450
    CHARGE:  cpu time    0.4382: real time    0.4396
    MIXING:  cpu time    0.0034: real time    0.0034
    --------------------------------------------
      LOOP:  cpu time   12.4607: real time   12.4991

 eigenvalue-minimisations  : 11748
 total energy-change (2. order) :-0.7906521E-05  (-0.3068831E-06)
 number of electron     276.0000058 magnetization      42.3025182
 augmentation part      112.1820962 magnetization      29.3603880

 Broyden mixing:
  rms(total) = 0.95107E-03    rms(broyden)= 0.95081E-03
  rms(prec ) = 0.99747E-03
  weight for this iteration     100.00

 eigenvalues of (default mixing * dielectric matrix)
  average eigenvalue GAMMA=   1.4909
  6.7001  2.9860  2.2722  2.2722  1.1405  1.1405  1.0154  1.0154  0.3767  0.7930
  0.7930  0.7284  0.7284  0.6776  0.6072  0.6072

 Free energy of the ion-electron system (eV)
  ---------------------------------------------------
  alpha Z        PSCENC =      1362.55286497
  Ewald energy   TEWEN  =    -25513.06237826
  -Hartree energ DENC   =    -10007.95959014
  -exchange      EXHF   =         0.00000000
  -V(xc)+E(xc)   XCENC  =      1356.93570320
  PAW double counting   =     35789.43625562   -36952.95895312
  entropy T*S    EENTRO =         0.00000000
  eigenvalues    EBANDS =     -3527.80644127
  atomic energy  EATOM  =     37271.49226966
  Solvation  Ediel_sol  =         0.00000000
  ---------------------------------------------------
  free energy    TOTEN  =      -221.37026934 eV

  energy without entropy =     -221.37026934  energy(sigma->0) =     -221.37026934


--------------------------------------------------------------------------------------------------------




--------------------------------------- Iteration      1(  22)  ---------------------------------------


    POTLOK:  cpu time    0.0759: real time    0.0766
    SETDIJ:  cpu time    0.0124: real time    0.0124
     EDDAV:  cpu time    9.9235: real time    9.9526
 BZINTS: Fermi energy:  6.184621;276.000000 electrons
         Band energy:***********;  BLOECHL correction: -0.033085
       DOS:  cpu time    0.0480: real time    0.0481
    CHARGE:  cpu time    0.4404: real time    0.4415
    MIXING:  cpu time    0.0035: real time    0.0035
    --------------------------------------------
      LOOP:  cpu time   10.5036: real time   10.5347

 eigenvalue-minimisations  :  9408
 total energy-change (2. order) :-0.8466595E-06  (-0.4759421E-07)
 number of electron     276.0000058 magnetization      42.3051762
 augmentation part      112.1824747 magnetization      29.3631019

 Broyden mixing:
  rms(total) = 0.63407E-03    rms(broyden)= 0.63405E-03
  rms(prec ) = 0.65803E-03
  weight for this iteration     100.00

 eigenvalues of (default mixing * dielectric matrix)
  average eigenvalue GAMMA=   1.4727
  6.6872  2.9854  2.3775  2.3775  1.2364  1.2364  1.0158  1.0158  0.3767  0.8504
  0.8504  0.7236  0.7236  0.7028  0.6036  0.6361  0.6361

 Free energy of the ion-electron system (eV)
  ---------------------------------------------------
  alpha Z        PSCENC =      1362.55286497
  Ewald energy   TEWEN  =    -25513.06237826
  -Hartree energ DENC   =    -10007.94230591
  -exchange      EXHF   =         0.00000000
  -V(xc)+E(xc)   XCENC  =      1356.93582751
  PAW double counting   =     35789.56211515   -36953.08639091
  entropy T*S    EENTRO =         0.00000000
  eigenvalues    EBANDS =     -3527.82227241
  atomic energy  EATOM  =     37271.49226966
  Solvation  Ediel_sol  =         0.00000000
  ---------------------------------------------------
  free energy    TOTEN  =      -221.37027019 eV

  energy without entropy =     -221.37027019  energy(sigma->0) =     -221.37027019


--------------------------------------------------------------------------------------------------------




--------------------------------------- Iteration      1(  23)  ---------------------------------------


    POTLOK:  cpu time    0.0764: real time    0.0767
    SETDIJ:  cpu time    0.0123: real time    0.0124
     EDDAV:  cpu time    9.2463: real time    9.2698
 BZINTS: Fermi energy:  6.184584;276.000000 electrons
         Band energy:***********;  BLOECHL correction: -0.033082
       DOS:  cpu time    0.0495: real time    0.0496
    CHARGE:  cpu time    0.4411: real time    0.4422
    MIXING:  cpu time    0.0036: real time    0.0036
    --------------------------------------------
      LOOP:  cpu time    9.8292: real time    9.8542

 eigenvalue-minimisations  :  8520
 total energy-change (2. order) : 0.3192610E-05  (-0.2032074E-07)
 number of electron     276.0000058 magnetization      42.3062682
 augmentation part      112.1826726 magnetization      29.3637758

 Broyden mixing:
  rms(total) = 0.23735E-03    rms(broyden)= 0.23729E-03
  rms(prec ) = 0.25109E-03
  weight for this iteration     100.00

 eigenvalues of (default mixing * dielectric matrix)
  average eigenvalue GAMMA=   1.4767
  6.6767  3.0205  2.6155  2.2391  1.4342  1.4342  1.0431  1.0431  0.3767  0.9199
  0.9199  0.8355  0.7308  0.7308  0.6717  0.6717  0.6084  0.6084

 Free energy of the ion-electron system (eV)
  ---------------------------------------------------
  alpha Z        PSCENC =      1362.55286497
  Ewald energy   TEWEN  =    -25513.06237826
  -Hartree energ DENC   =    -10007.92544871
  -exchange      EXHF   =         0.00000000
  -V(xc)+E(xc)   XCENC  =      1356.93701465
  PAW double counting   =     35789.83634782   -36953.36556530
  entropy T*S    EENTRO =         0.00000000
  eigenvalues    EBANDS =     -3527.83537183
  atomic energy  EATOM  =     37271.49226966
  Solvation  Ediel_sol  =         0.00000000
  ---------------------------------------------------
  free energy    TOTEN  =      -221.37026700 eV

  energy without entropy =     -221.37026700  energy(sigma->0) =     -221.37026700


--------------------------------------------------------------------------------------------------------




--------------------------------------- Iteration      1(  24)  ---------------------------------------


    POTLOK:  cpu time    0.0764: real time    0.0771
    SETDIJ:  cpu time    0.0124: real time    0.0124
     EDDAV:  cpu time    7.9620: real time    7.9825
 BZINTS: Fermi energy:  6.184569;276.000000 electrons
         Band energy:***********;  BLOECHL correction: -0.033081
       DOS:  cpu time    0.0480: real time    0.0482
    CHARGE:  cpu time    0.4479: real time    0.4491
    MIXING:  cpu time    0.0038: real time    0.0038
    --------------------------------------------
      LOOP:  cpu time    8.5504: real time    8.5731

 eigenvalue-minimisations  :  6744
 total energy-change (2. order) : 0.1115659E-05  (-0.1056200E-07)
 number of electron     276.0000058 magnetization      42.3063033
 augmentation part      112.1827627 magnetization      29.3636774

 Broyden mixing:
  rms(total) = 0.91410E-04    rms(broyden)= 0.91336E-04
  rms(prec ) = 0.95936E-04
  weight for this iteration     100.00

 eigenvalues of (default mixing * dielectric matrix)
[...]
  0.000  -0.002  -0.000   0.000  -0.001  -0.000   0.000  -0.000  -0.006  -0.000   0.000  -0.000   0.000   0.009  -0.000  -0.000
 total augmentation occupancy for first ion, spin component:           2
 -0.003  -0.000   0.000  -0.010   0.000   0.000   0.002   0.001  -0.000   0.000   0.000  -0.003  -0.002   0.000  -0.000  -0.000
  0.000  -0.003   0.000   0.000  -0.010   0.000   0.000  -0.000  -0.001   0.000   0.000  -0.000  -0.000   0.002  -0.000  -0.000
 -0.000   0.000  -0.003  -0.000   0.000  -0.010   0.000  -0.000   0.000   0.001  -0.002  -0.000   0.000  -0.000  -0.002   0.003
 -0.010   0.000  -0.000   0.021   0.000   0.000  -0.085  -0.050  -0.000   0.002   0.013   0.049   0.032   0.000  -0.001  -0.008
  0.000  -0.010   0.000  -0.000   0.017  -0.000   0.000   0.000   0.076  -0.000  -0.000  -0.000   0.000  -0.043   0.000   0.000
  0.000   0.000  -0.010  -0.000   0.000   0.021   0.013  -0.002  -0.000  -0.050   0.085  -0.008   0.001   0.000   0.032  -0.049
  0.002  -0.000   0.000  -0.085  -0.000   0.013   4.291   0.574   0.000  -0.179   0.000  -2.426  -0.468  -0.000   0.166   0.002
  0.001  -0.000  -0.000  -0.050   0.000  -0.002   0.574   5.016   0.000  -0.000  -0.179  -0.467  -3.022  -0.000   0.003   0.166
 -0.000  -0.001   0.000  -0.000   0.076  -0.000   0.000   0.000   4.387   0.000  -0.000   0.000  -0.000  -2.383  -0.000   0.000
  0.000   0.000   0.001   0.002   0.000  -0.050  -0.179   0.000   0.000   5.016  -0.574   0.166  -0.003  -0.000  -3.022   0.467
  0.000   0.000  -0.002   0.013  -0.000   0.085  -0.000  -0.179  -0.000  -0.574   4.291  -0.002   0.166   0.000   0.468  -2.426
 -0.003   0.000  -0.000   0.049   0.000  -0.008  -2.426  -0.467   0.000   0.166  -0.002   1.293   0.330   0.000  -0.129   0.000
 -0.002   0.000   0.000   0.032   0.000   0.001  -0.468  -3.022  -0.000  -0.003   0.166   0.330   1.748   0.000   0.000  -0.129
  0.000   0.002  -0.000   0.000  -0.043   0.000  -0.000  -0.000  -2.383  -0.000   0.000   0.000   0.000   1.232   0.000  -0.000
 -0.000   0.000  -0.002  -0.001  -0.000   0.032   0.166   0.003  -0.000  -3.022   0.468  -0.129   0.000   0.000   1.748  -0.330
 -0.000  -0.000   0.003  -0.008   0.000  -0.049   0.002   0.166   0.000   0.467  -2.426  -0.000  -0.129  -0.000  -0.330   1.293
 -0.000   0.000  -0.000   0.000   0.001   0.000   0.000   0.000   0.044  -0.000  -0.000  -0.000  -0.000  -0.022  -0.000   0.000
 -0.000   0.000   0.000   0.000   0.001  -0.000  -0.000  -0.000   0.007   0.000  -0.000  -0.000   0.000  -0.005   0.000   0.000


------------------------ aborting loop because EDIFF is reached ----------------------------------------


 


 total charge     
 
# of ion       s       p       d       tot
------------------------------------------
    1        0.284   6.340   5.852  12.476
    2        0.284   6.340   5.855  12.479
    3        0.284   6.340   5.862  12.486
    4        0.284   6.340   5.852  12.475
    5        0.284   6.340   5.854  12.478
    6        0.284   6.340   5.865  12.489
    7        0.284   6.340   5.851  12.474
    8        0.284   6.340   5.853  12.477
    9        0.283   6.340   5.854  12.477
   10        0.283   6.340   5.868  12.492
   11        0.283   6.340   5.866  12.489
   12        0.283   6.340   5.857  12.480
   13        1.569   3.415   0.000   4.984
   14        1.569   3.414   0.000   4.983
   15        1.569   3.415   0.000   4.984
   16        1.569   3.415   0.000   4.985
   17        1.569   3.416   0.000   4.985
   18        1.569   3.415   0.000   4.984
   19        1.568   3.402   0.000   4.971
   20        1.568   3.402   0.000   4.970
   21        1.568   3.403   0.000   4.971
   22        1.568   3.403   0.000   4.971
   23        1.568   3.403   0.000   4.971
   24        1.568   3.403   0.000   4.971
   25        1.570   3.416   0.000   4.986
   26        1.570   3.415   0.000   4.985
   27        1.570   3.417   0.000   4.987
   28        1.570   3.418   0.000   4.988
   29        1.570   3.417   0.000   4.988
   30        1.570   3.417   0.000   4.987
--------------------------------------------------
tot         31.651 137.483  70.289 239.423
 


 magnetization (x)
 
# of ion       s       p       d       tot
------------------------------------------
    1        0.024   0.036   3.139   3.199
    2        0.024   0.036   3.136   3.196
    3        0.025   0.036   3.132   3.193
    4        0.025   0.036   3.139   3.199
    5        0.025   0.036   3.139   3.199
    6        0.025   0.036   3.130   3.191
    7        0.024   0.036   3.123   3.183
    8        0.024   0.036   3.120   3.180
    9        0.025   0.036   3.121   3.181
   10        0.025   0.036   3.114   3.175
   11        0.025   0.036   3.117   3.177
   12        0.025   0.036   3.121   3.181
   13        0.020   0.139   0.000   0.159
   14        0.020   0.138   0.000   0.159
   15        0.020   0.139   0.000   0.159
   16        0.020   0.140   0.000   0.160
   17        0.020   0.140   0.000   0.160
   18        0.020   0.139   0.000   0.159
   19        0.021   0.143   0.000   0.165
   20        0.021   0.143   0.000   0.164
   21        0.021   0.144   0.000   0.165
   22        0.021   0.143   0.000   0.165
   23        0.021   0.144   0.000   0.165
   24        0.021   0.144   0.000   0.165
   25        0.020   0.135   0.000   0.156
   26        0.020   0.135   0.000   0.155
   27        0.020   0.136   0.000   0.156
   28        0.020   0.137   0.000   0.158
   29        0.020   0.137   0.000   0.157
   30        0.020   0.136   0.000   0.157
--------------------------------------------------
tot          0.668   2.943  37.529  41.140
 
    CHARGE:  cpu time    0.4337: real time    0.4351
    FORLOC:  cpu time    0.0087: real time    0.0088
    FORNL :  cpu time    3.0028: real time    3.0116
    STRESS:  cpu time    8.9489: real time    8.9748
    FORCOR:  cpu time    0.0819: real time    0.0822
    FORHAR:  cpu time    0.0148: real time    0.0149
    MIXING:  cpu time    0.0041: real time    0.0041
    OFIELD:  cpu time    0.0001: real time    0.0001

  FORCE on cell =-STRESS in cart. coord.  units (eV):
  Direction    XX          YY          ZZ          XY          YZ          ZX
  --------------------------------------------------------------------------------------
  Alpha Z  1362.55286  1362.55286  1362.55286
  Ewald   -8201.75422 -8201.75360 -9109.63806     0.00000     0.00002    -0.00000
  Hartree  3503.98299  3503.98284  2999.94914    -0.00000     0.00001    -0.00000
  E(xc)   -1615.75778 -1615.75783 -1617.32145    -0.00004     0.00000    -0.00000
  Local    -164.14934  -164.15026  1231.79160    -0.00108    -0.00004     0.00000
  n-local  -743.75780  -742.64444  -745.18268    -4.17905     0.49572     0.12357
  augment  1845.05933  1845.06004  1846.93469     0.00089    -0.00000     0.00000
  Kinetic  4006.05832  4008.16275  4023.90582     7.64429    -1.97855    -5.06045
  Fock        0.00000     0.00000     0.00000     0.00000     0.00000     0.00000
  -------------------------------------------------------------------------------------
  Total      -6.15663    -6.15663    -7.00806     0.00000     0.00000     0.00000
  in kB     -32.65489   -32.65489   -37.17090     0.00000     0.00000     0.00000
  external pressure =      -34.16 kB  Pullay stress =        0.00 kB


 VOLUME and BASIS-vectors are now :
 -----------------------------------------------------------------------------
  energy-cutoff  :      560.00
  volume of cell :      302.07
      direct lattice vectors                 reciprocal lattice vectors
     5.035100000  0.000000000  0.000000000     0.198605787  0.114665118  0.000000000
    -2.517550000  4.360524000  0.000000000     0.000000000  0.229330236  0.000000000
     0.000000000  0.000000000 13.758100000     0.000000000  0.000000000  0.072684455

  length of vectors
     5.035100000  5.035099558 13.758100000     0.229330216  0.229330236  0.072684455


 FORCES acting on ions
    electron-ion (+dipol)            ewald-force                    non-local-force                 convergence-correction
 -----------------------------------------------------------------------------------------------
   0.156E-03 0.366E-03 -.126E+03   -.101E-02 0.523E-03 0.128E+03   0.607E-17 0.000E+00 -.289E+01   0.393E-09 -.974E-09 -.112E-05
   -.402E-03 0.579E-03 0.126E+03   0.101E-02 -.523E-03 -.128E+03   -.108E-16 -.304E-17 0.289E+01   -.562E-09 0.986E-09 0.112E-05
   -.134E-03 0.534E-03 -.126E+03   0.314E-02 -.187E-02 0.128E+03   0.121E-16 -.434E-18 -.289E+01   0.827E-08 -.556E-08 0.102E-05
   -.328E-03 0.646E-03 -.126E+03   -.220E-02 0.121E-02 0.128E+03   0.520E-17 0.390E-17 -.289E+01   -.941E-08 0.465E-08 0.176E-05
   0.814E-04 0.300E-03 0.126E+03   0.220E-02 -.121E-02 -.128E+03   -.824E-17 -.520E-17 0.289E+01   0.924E-08 -.464E-08 -.176E-05
   -.112E-03 0.412E-03 0.126E+03   -.314E-02 0.187E-02 -.128E+03   -.564E-17 0.434E-18 0.289E+01   -.844E-08 0.557E-08 -.102E-05
   0.566E-03 -.105E-02 0.126E+03   0.964E-03 -.523E-03 -.128E+03   0.130E-17 -.434E-18 0.289E+01   -.129E-08 0.631E-10 0.112E-05
   0.104E-02 -.127E-02 -.126E+03   -.964E-03 0.523E-03 0.128E+03   0.520E-17 0.520E-17 -.289E+01   0.904E-09 0.249E-09 -.112E-05
   0.105E-02 -.133E-02 0.126E+03   0.215E-02 -.121E-02 -.128E+03   -.759E-17 -.390E-17 0.289E+01   0.848E-08 -.561E-08 -.176E-05
   0.751E-03 -.110E-02 -.126E+03   0.319E-02 -.187E-02 0.128E+03   0.542E-17 0.520E-17 -.289E+01   0.882E-08 -.428E-08 0.102E-05
   0.855E-03 -.121E-02 0.126E+03   -.319E-02 0.187E-02 -.128E+03   -.217E-18 -.867E-18 0.289E+01   -.920E-08 0.460E-08 -.102E-05
   0.556E-03 -.988E-03 -.126E+03   -.215E-02 0.121E-02 0.128E+03   0.911E-17 0.434E-17 -.289E+01   -.887E-08 0.592E-08 0.176E-05
   -.424E+02 -.134E-02 0.214E-03   0.418E+02 0.106E-02 -.470E-03   0.677E+00 -.405E-17 -.412E-17   0.228E-05 0.223E-08 0.128E-09
   0.424E+02 -.862E-04 -.336E-03   -.418E+02 -.106E-02 0.470E-03   -.677E+00 -.379E-18 0.114E-17   -.228E-05 -.210E-08 0.159E-10
   -.424E+02 -.317E-02 -.585E-02   0.418E+02 0.570E-03 -.997E-03   0.677E+00 -.114E-17 -.379E-18   0.228E-05 -.295E-09 -.644E-06
   -.424E+02 0.238E-02 0.545E-02   0.418E+02 -.163E-02 0.147E-02   0.677E+00 -.331E-17 -.108E-18   0.228E-05 -.266E-08 0.644E-06
   0.424E+02 -.380E-02 -.557E-02   -.418E+02 0.163E-02 -.147E-02   -.677E+00 -.203E-17 0.108E-17   -.228E-05 0.279E-08 -.644E-06
   0.424E+02 0.175E-02 0.573E-02   -.418E+02 -.570E-03 0.997E-03   -.677E+00 0.390E-17 0.835E-17   -.228E-05 0.426E-09 0.644E-06
   0.212E+02 -.367E+02 -.307E-03   -.209E+02 0.362E+02 0.438E-03   -.338E+00 0.586E+00 -.260E-17   -.114E-05 0.197E-05 0.120E-10
   -.212E+02 0.367E+02 0.193E-03   0.209E+02 -.362E+02 -.438E-03   0.338E+00 -.586E+00 -.434E-17   0.114E-05 -.197E-05 0.118E-09
   0.212E+02 -.367E+02 -.554E-02   -.209E+02 0.362E+02 -.150E-02   -.338E+00 0.586E+00 -.607E-17   -.114E-05 0.198E-05 -.644E-06
   0.212E+02 -.367E+02 0.576E-02   -.209E+02 0.362E+02 0.964E-03   -.338E+00 0.586E+00 0.000E+00   -.114E-05 0.197E-05 0.644E-06
   -.212E+02 0.367E+02 -.587E-02   0.209E+02 -.362E+02 -.964E-03   0.338E+00 -.586E+00 -.173E-17   0.114E-05 -.197E-05 -.644E-06
   -.212E+02 0.367E+02 0.543E-02   0.209E+02 -.362E+02 0.150E-02   0.338E+00 -.586E+00 -.434E-17   0.114E-05 -.198E-05 0.644E-06
   0.212E+02 0.367E+02 0.945E-04   -.209E+02 -.362E+02 0.322E-04   -.338E+00 -.586E+00 0.304E-17   -.114E-05 -.198E-05 -.145E-09
   -.212E+02 -.367E+02 0.144E-03   0.209E+02 0.362E+02 -.322E-04   0.338E+00 0.586E+00 -.217E-17   0.114E-05 0.198E-05 -.137E-09
   0.212E+02 0.367E+02 -.409E-02   -.209E+02 -.362E+02 -.303E-02   -.338E+00 -.586E+00 0.347E-17   -.114E-05 -.198E-05 -.644E-06
   -.212E+02 -.367E+02 -.404E-02   0.209E+02 0.362E+02 -.310E-02   0.338E+00 0.586E+00 -.217E-17   0.114E-05 0.197E-05 -.644E-06
   0.212E+02 0.367E+02 0.428E-02   -.209E+02 -.362E+02 0.310E-02   -.338E+00 -.586E+00 0.304E-17   -.114E-05 -.197E-05 0.644E-06
   -.212E+02 -.367E+02 0.433E-02   0.209E+02 0.362E+02 0.303E-02   0.338E+00 0.586E+00 -.260E-17   0.114E-05 0.198E-05 0.644E-06
 -----------------------------------------------------------------------------------------------
   0.149E-01 -.165E-01 -.113E-04   -.995E-13 -.995E-13 -.192E-12   -.555E-15 0.111E-15 -.455E-15   -.216E-08 0.144E-08 0.416E-09
 
 
 POSITION                                       TOTAL-FORCE (eV/Angst)
 -----------------------------------------------------------------------------------
      0.00000      0.00000      4.88853         0.000000     -0.000000     -0.929590
      0.00000      0.00000      8.86957         0.000000     -0.000000      0.929590
     -0.00000      2.90702      0.30250         0.000000     -0.000000     -0.929590
      2.51755      1.45351      9.47456         0.000000     -0.000000     -0.929590
     -0.00000      2.90702      4.28354         0.000000     -0.000000      0.929590
      2.51755      1.45351     13.45560         0.000000     -0.000000      0.929590
      0.00000      0.00000      1.99052         0.000000     -0.000000      0.929590
      0.00000      0.00000     11.76758         0.000000     -0.000000     -0.929590
     -0.00000      2.90702     11.16259         0.000000     -0.000000      0.929590
     -0.00000      2.90702      7.18155         0.000000     -0.000000     -0.929590
      2.51755      1.45351      6.57655         0.000000     -0.000000      0.929590
      2.51755      1.45351      2.59551         0.000000     -0.000000     -0.929590
      1.54165      0.00000      3.43953         0.085585     -0.000000     -0.000000
      3.49345      0.00000     10.31858        -0.085585     -0.000000     -0.000000
      1.54164      2.90702     12.61160         0.085585     -0.000000     -0.000000
      4.05920      1.45351      8.02555         0.085585     -0.000000     -0.000000
     -1.54165      2.90702      5.73255        -0.085585     -0.000000     -0.000000
      0.97591      1.45351      1.14650        -0.085585     -0.000000      0.000000
     -0.77082      1.33511      3.43953        -0.042792      0.074118     -0.000000
     -1.74673      3.02542     10.31858         0.042792     -0.074118     -0.000000
     -0.77083      4.24212     12.61160        -0.042792      0.074118     -0.000000
      1.74673      2.78861      8.02555        -0.042792      0.074118     -0.000000
      0.77082      1.57191      5.73255         0.042792     -0.074118     -0.000000
      3.28838      0.11840      1.14650         0.042792     -0.074118      0.000000
      1.74673      3.02542      3.43953        -0.042792     -0.074118     -0.000000
      0.77082      1.33511     10.31858         0.042792      0.074118      0.000000
     -0.77083      1.57191     12.61160        -0.042792     -0.074118     -0.000000
      0.77082      4.24212      5.73255         0.042792      0.074118     -0.000000
      1.74673      0.11840      8.02555        -0.042792     -0.074118      0.000000
      3.28838      2.78861      1.14650         0.042792      0.074118     -0.000000
 -----------------------------------------------------------------------------------
    total drift:                                0.014942     -0.016504     -0.000011


--------------------------------------------------------------------------------------------------------



  FREE ENERGIE OF THE ION-ELECTRON SYSTEM (eV)
  ---------------------------------------------------
  free  energy   TOTEN  =      -221.37026614 eV

  energy  without entropy=     -221.37026614  energy(sigma->0) =     -221.37026614
 


--------------------------------------------------------------------------------------------------------


    POTLOK:  cpu time    0.0885: real time    0.0887


--------------------------------------------------------------------------------------------------------


     LOOP+:  cpu time  357.7688: real time  358.8087
    4ORBIT:  cpu time    0.0000: real time    0.0000
 


 total charge     
 
# of ion       s       p       d       tot
------------------------------------------
    1        0.284   6.340   5.852  12.476
    2        0.284   6.340   5.855  12.479
    3        0.284   6.340   5.862  12.486
    4        0.284   6.340   5.852  12.475
    5        0.284   6.340   5.854  12.478
    6        0.284   6.340   5.865  12.489
    7        0.284   6.340   5.851  12.474
    8        0.284   6.340   5.853  12.477
    9        0.283   6.340   5.854  12.477
   10        0.283   6.340   5.868  12.492
   11        0.283   6.340   5.866  12.489
   12        0.283   6.340   5.857  12.480
   13        1.569   3.415   0.000   4.984
   14        1.569   3.414   0.000   4.983
   15        1.569   3.415   0.000   4.984
   16        1.569   3.415   0.000   4.985
   17        1.569   3.416   0.000   4.985
   18        1.569   3.415   0.000   4.984
   19        1.568   3.402   0.000   4.971
   20        1.568   3.402   0.000   4.970
   21        1.568   3.403   0.000   4.971
   22        1.568   3.403   0.000   4.971
   23        1.568   3.403   0.000   4.971
   24        1.568   3.403   0.000   4.971
   25        1.570   3.416   0.000   4.986
   26        1.570   3.415   0.000   4.985
   27        1.570   3.417   0.000   4.987
   28        1.570   3.418   0.000   4.988
   29        1.570   3.417   0.000   4.988
   30        1.570   3.417   0.000   4.987
--------------------------------------------------
tot         31.651 137.483  70.289 239.423
 


 magnetization (x)
 
# of ion       s       p       d       tot
------------------------------------------
    1        0.024   0.036   3.139   3.199
    2        0.024   0.036   3.136   3.196
    3        0.025   0.036   3.132   3.193
    4        0.025   0.036   3.139   3.199
    5        0.025   0.036   3.139   3.199
    6        0.025   0.036   3.130   3.191
    7        0.024   0.036   3.123   3.183
    8        0.024   0.036   3.120   3.180
    9        0.025   0.036   3.121   3.181
   10        0.025   0.036   3.114   3.175
   11        0.025   0.036   3.117   3.177
   12        0.025   0.036   3.121   3.181
   13        0.020   0.139   0.000   0.159
   14        0.020   0.138   0.000   0.159
   15        0.020   0.139   0.000   0.159
   16        0.020   0.140   0.000   0.160
   17        0.020   0.140   0.000   0.160
   18        0.020   0.139   0.000   0.159
   19        0.021   0.143   0.000   0.165
   20        0.021   0.143   0.000   0.164
   21        0.021   0.144   0.000   0.165
   22        0.021   0.143   0.000   0.165
   23        0.021   0.144   0.000   0.165
   24        0.021   0.144   0.000   0.165
   25        0.020   0.135   0.000   0.156
   26        0.020   0.135   0.000   0.155
   27        0.020   0.136   0.000   0.156
   28        0.020   0.137   0.000   0.158
   29        0.020   0.137   0.000   0.157
   30        0.020   0.136   0.000   0.157
--------------------------------------------------
tot          0.668   2.943  37.529  41.140
 
 BZINTS: Fermi energy:  6.184547;276.000000 electrons
         Band energy:***********;  BLOECHL correction: -0.033081

 total amount of memory used by VASP MPI-rank0    86837. kBytes
=======================================================================

   base      :      30000. kBytes
   nonlr-proj:       7841. kBytes
   fftplans  :       3518. kBytes
   grid      :       9039. kBytes
   one-center:        248. kBytes
   wavefun   :      36191. kBytes
 
  
  
 General timing and accounting informations for this job:
 ========================================================
  
                  Total CPU time used (sec):      364.647
                            User time (sec):      363.168
                          System time (sec):        1.479
                         Elapsed time (sec):      365.777
  
                   Maximum memory used (kb):      131976.
                   Average memory used (kb):           0.
  
                          Minor page faults:        70158
                          Major page faults:            0
                 Voluntary context switches:          331
