       N       E                     dE             d eps       ncg     rms          rms(c)
DAV:   1     0.725826093414E+03    0.72583E+03   -0.34587E+04  4384   0.160E+03
DAV:   2     0.109050338094E+02   -0.71492E+03   -0.67824E+03  4016   0.522E+02
DAV:   3    -0.277496067461E+02   -0.38655E+02   -0.36477E+02  4232   0.137E+02
DAV:   4    -0.283173787394E+02   -0.56777E+00   -0.56707E+00  4248   0.170E+01
DAV:   5    -0.283290412510E+02   -0.11663E-01   -0.11662E-01  4288   0.234E+00
DAV:   6    -0.283294617941E+02   -0.42054E-03   -0.42054E-03  4512   0.438E-01
DAV:   7    -0.283294771867E+02   -0.15393E-04   -0.15392E-04  4264   0.781E-02
DAV:   8    -0.283294778981E+02   -0.71134E-06   -0.71116E-06  3928   0.167E-02
   1 F= -.28329478E+02 E0= -.28261473E+02  d E =-.136010E+00  mag=     2.3812
