 vasp.5.4.4.18Apr17-6-g9f103f2a35 (build Apr 28 2018 00:24:27) complex          
  
 executed on             LinuxIFC date 2021.09.07  01:12:08
 running on   24 total cores
 distrk:  each k-point on   24 cores,    1 groups
 distr:  one band on NCORES_PER_BAND=   4 cores,    6 groups


--------------------------------------------------------------------------------------------------------


 INCAR:
 POTCAR:    PAW_PBE Fe_pv 02Aug2007               
 POTCAR:    PAW_PBE Fe_pv 02Aug2007               
   VRHFIN =Fe:  3pd7s1                                                          
   LEXCH  = PE                                                                  
   EATOM  =  2457.4239 eV,  180.6156 Ry                                         
                                                                                
   TITEL  = PAW_PBE Fe_pv 02Aug2007                                             
   LULTRA =        F    use ultrasoft PP ?                                      
   IUNSCR =        1    unscreen: 0-lin 1-nonlin 2-no                           
   RPACOR =    1.750    partial core radius                                     
   POMASS =   55.847; ZVAL   =   14.000    mass and valenz                      
   RCORE  =    2.200    outmost cutoff radius                                   
   RWIGS  =    2.200; RWIGS  =    1.164    wigner-seitz radius (au A)           
   ENMAX  =  293.238; ENMIN  =  219.928 eV                                      
   ICORE  =        3    local potential                                         
   LCOR   =        T    correct aug charges                                     
   LPAW   =        T    paw PP                                                  
   EAUG   =  578.342                                                            
   DEXC   =    0.000                                                            
   RMAX   =    2.249    core radius for proj-oper                               
   RAUG   =    1.300    factor for augmentation sphere                          
   RDEP   =    2.296    radius for radial grids                                 
   RDEPT  =    1.766    core radius for aug-charge                              
                                                                                
   Atomic configuration                                                         
    8 entries                                                                   
     n  l   j            E        occ.                                          
     1  0  0.50     -6993.8440   2.0000                                         
     2  0  0.50      -814.6047   2.0000                                         
     2  1  1.50      -693.3689   6.0000                                         
     3  0  0.50       -89.4732   2.0000                                         
     3  1  1.50       -55.6373   6.0000                                         
     3  2  2.50        -3.8151   7.0000                                         
     4  0  0.50        -4.2551   1.0000                                         
     4  3  2.50        -1.3606   0.0000                                         
   Description                                                                  
     l       E           TYP  RCUT    TYP  RCUT                                 
     1    -55.6372668     23  2.000                                             
     1     -5.4423304     23  2.000                                             
     2     -3.8151096     23  2.200                                             
     2     -5.1756922     23  2.200                                             
     0     -4.2550951     23  2.200                                             
     0     27.2116520     23  2.200                                             
     3     -1.3605826     23  2.200                                             
  local pseudopotential read in
  partial core-charges read in
  partial kinetic energy density read in
  atomic valenz-charges read in
  non local Contribution for L=           1  read in
    real space projection operators read in
  non local Contribution for L=           1  read in
    real space projection operators read in
  non local Contribution for L=           2  read in
    real space projection operators read in
  non local Contribution for L=           2  read in
    real space projection operators read in
  non local Contribution for L=           0  read in
    real space projection operators read in
  non local Contribution for L=           0  read in
    real space projection operators read in
    PAW grid and wavefunctions read in
 
   number of l-projection  operators is LMAX  =           6
   number of lm-projection operators is LMMAX =          18
 

 ----------------------------------------------------------------------------- 
|                                                                             |
|  ADVICE TO THIS USER RUNNING 'VASP/VAMP'   (HEAR YOUR MASTER'S VOICE ...):  |
|                                                                             |
|      You have a (more or less) 'small supercell' and for smaller cells      |
|      it is recommended  to use the reciprocal-space projection scheme!      |
|      The real space optimization is not  efficient for small cells and it   |
|      is also less accurate ...                                              |
|      Therefore set LREAL=.FALSE. in the  INCAR file                         |
|                                                                             |
 ----------------------------------------------------------------------------- 

 Optimization of the real space projectors (new method)

 maximal supplied QI-value         = 17.01
 optimisation between [QCUT,QGAM] = [ 15.48, 30.95] = [ 67.08,268.30] Ry 
 Optimized for a Real-space Cutoff    1.26 Angstroem

   l    n(q)    QCUT    max X(q) W(low)/X(q) W(high)/X(q)  e(spline) 
   1     11    15.477     4.267    0.90E-04    0.14E-03    0.59E-06
   1     11    15.477     5.750    0.14E-03    0.21E-03    0.81E-06
   2     11    15.477    53.656    0.97E-04    0.12E-03    0.26E-06
   2     11    15.477    49.521    0.10E-03    0.12E-03    0.27E-06
   0     12    15.477    31.246    0.35E-04    0.34E-04    0.27E-06
   0     12    15.477    12.201    0.29E-04    0.28E-04    0.22E-06
  PAW_PBE Fe_pv 02Aug2007               :
 energy of atom  1       EATOM=-2457.4239
 kinetic energy error for atom=    0.0010 (will be added to EATOM!!)
 
 
 POSCAR: Fe2                                     
  positions in direct lattice
  No initial velocities read in
 exchange correlation table for  LEXCH =        8
   RHO(1)=    0.500       N(1)  =     2000
   RHO(2)=  100.500       N(2)  =     4000
 


--------------------------------------------------------------------------------------------------------


 ion  position               nearest neighbor table
   1  0.000  0.000  0.000-   2 2.46   2 2.46   2 2.46   2 2.46   2 2.46   2 2.46   2 2.46   2 2.46

   2  0.500  0.500  0.500-   1 2.46   1 2.46   1 2.46   1 2.46   1 2.46   1 2.46   1 2.46   1 2.46

 
  LATTYP: Found a simple cubic cell.
 ALAT       =     2.8400520000
  
  Lattice vectors:
  
 A1 = (   2.8400520000,   0.0000000000,   0.0000000000)
 A2 = (   0.0000000000,   2.8400520000,   0.0000000000)
 A3 = (   0.0000000000,   0.0000000000,   2.8400520000)


Analysis of symmetry for initial positions (statically):
=====================================================================
 Subroutine PRICEL returns following result:
 
  LATTYP: Found a body centered cubic cell.
 ALAT       =     2.8400520000
  
  Lattice vectors:
  
 A1 = (   1.4200260000,   1.4200260000,   1.4200260000)
 A2 = (   1.4200260000,  -1.4200260000,  -1.4200260000)
 A3 = (  -1.4200260000,   1.4200260000,  -1.4200260000)
 
   2 primitive cells build up your supercell.
 

 Routine SETGRP: Setting up the symmetry group for a 
 simple cubic supercell.


 Subroutine GETGRP returns: Found 48 space group operations
 (whereof 48 operations were pure point group operations)
 out of a pool of 48 trial point group operations.


The static configuration has the point symmetry O_h .


Analysis of symmetry for dynamics (positions and initial velocities):
=====================================================================
 Subroutine PRICEL returns following result:
 
  LATTYP: Found a body centered cubic cell.
 ALAT       =     2.8400520000
  
  Lattice vectors:
  
 A1 = (   1.4200260000,   1.4200260000,   1.4200260000)
 A2 = (   1.4200260000,  -1.4200260000,  -1.4200260000)
 A3 = (  -1.4200260000,   1.4200260000,  -1.4200260000)
 
   2 primitive cells build up your supercell.
 

 Routine SETGRP: Setting up the symmetry group for a 
 simple cubic supercell.


 Subroutine GETGRP returns: Found 48 space group operations
 (whereof 48 operations were pure point group operations)
 out of a pool of 48 trial point group operations.


The dynamic configuration has the point symmetry O_h .


Analysis of structural, dynamic, and magnetic symmetry:
=====================================================================
 Subroutine PRICEL returns following result:
 
  LATTYP: Found a body centered cubic cell.
 ALAT       =     2.8400520000
  
  Lattice vectors:
  
 A1 = (   1.4200260000,   1.4200260000,   1.4200260000)
 A2 = (   1.4200260000,  -1.4200260000,  -1.4200260000)
 A3 = (  -1.4200260000,   1.4200260000,  -1.4200260000)
 
   2 primitive cells build up your supercell.
 

 Routine SETGRP: Setting up the symmetry group for a 
 simple cubic supercell.


 Subroutine GETGRP returns: Found 48 space group operations
 (whereof 48 operations were pure point group operations)
 out of a pool of 48 trial point group operations.


The magnetic configuration has the point symmetry O_h .


 Subroutine INISYM returns: Found 48 space group operations
 (whereof 48 operations are pure point group operations),
 and found     2 'primitive' translations

 
 
 KPOINTS: Automatic mesh                          

Automatic generation of k-mesh.
 generate k-points for:   25   25   25
Space group operators:
 irot       det(A)        alpha          n_x          n_y          n_z        tau_x        tau_y        tau_z
    1     1.000000     0.000000     1.000000     0.000000     0.000000     0.000000     0.000000     0.000000
    2    -1.000000     0.000000     1.000000     0.000000     0.000000     0.000000     0.000000     0.000000
    3     1.000000   120.000000    -0.577350    -0.577350    -0.577350     0.000000     0.000000     0.000000
    4    -1.000000   120.000000    -0.577350    -0.577350    -0.577350     0.000000     0.000000     0.000000
    5     1.000000   120.000000     0.577350     0.577350     0.577350     0.000000     0.000000     0.000000
    6    -1.000000   120.000000     0.577350     0.577350     0.577350     0.000000     0.000000     0.000000
    7     1.000000    90.000000     0.000000     0.000000    -1.000000     0.000000     0.000000     0.000000
    8    -1.000000    90.000000     0.000000     0.000000    -1.000000     0.000000     0.000000     0.000000
    9     1.000000   180.000000     0.000000     0.707107     0.707107     0.000000     0.000000     0.000000
   10    -1.000000   180.000000     0.000000     0.707107     0.707107     0.000000     0.000000     0.000000
   11     1.000000    90.000000     0.000000     1.000000     0.000000     0.000000     0.000000     0.000000
   12    -1.000000    90.000000     0.000000     1.000000     0.000000     0.000000     0.000000     0.000000
   13     1.000000   180.000000     0.000000     0.000000     1.000000     0.000000     0.000000     0.000000
   14    -1.000000   180.000000     0.000000     0.000000     1.000000     0.000000     0.000000     0.000000
   15     1.000000   120.000000    -0.577350     0.577350     0.577350     0.000000     0.000000     0.000000
   16    -1.000000   120.000000    -0.577350     0.577350     0.577350     0.000000     0.000000     0.000000
   17     1.000000   120.000000    -0.577350     0.577350    -0.577350     0.000000     0.000000     0.000000
   18    -1.000000   120.000000    -0.577350     0.577350    -0.577350     0.000000     0.000000     0.000000
   19     1.000000    90.000000     0.000000     0.000000     1.000000     0.000000     0.000000     0.000000
   20    -1.000000    90.000000     0.000000     0.000000     1.000000     0.000000     0.000000     0.000000
   21     1.000000    90.000000    -1.000000     0.000000     0.000000     0.000000     0.000000     0.000000
   22    -1.000000    90.000000    -1.000000     0.000000     0.000000     0.000000     0.000000     0.000000
   23     1.000000   180.000000     0.707107     0.000000     0.707107     0.000000     0.000000     0.000000
   24    -1.000000   180.000000     0.707107     0.000000     0.707107     0.000000     0.000000     0.000000
   25     1.000000   120.000000     0.577350    -0.577350     0.577350     0.000000     0.000000     0.000000
   26    -1.000000   120.000000     0.577350    -0.577350     0.577350     0.000000     0.000000     0.000000
   27     1.000000   120.000000    -0.577350    -0.577350     0.577350     0.000000     0.000000     0.000000
   28    -1.000000   120.000000    -0.577350    -0.577350     0.577350     0.000000     0.000000     0.000000
   29     1.000000   180.000000     1.000000     0.000000     0.000000     0.000000     0.000000     0.000000
   30    -1.000000   180.000000     1.000000     0.000000     0.000000     0.000000     0.000000     0.000000
   31     1.000000    90.000000     0.000000    -1.000000     0.000000     0.000000     0.000000     0.000000
   32    -1.000000    90.000000     0.000000    -1.000000     0.000000     0.000000     0.000000     0.000000
   33     1.000000   180.000000     0.707107     0.707107     0.000000     0.000000     0.000000     0.000000
   34    -1.000000   180.000000     0.707107     0.707107     0.000000     0.000000     0.000000     0.000000
   35     1.000000    90.000000     1.000000     0.000000     0.000000     0.000000     0.000000     0.000000
   36    -1.000000    90.000000     1.000000     0.000000     0.000000     0.000000     0.000000     0.000000
   37     1.000000   120.000000     0.577350    -0.577350    -0.577350     0.000000     0.000000     0.000000
   38    -1.000000   120.000000     0.577350    -0.577350    -0.577350     0.000000     0.000000     0.000000
   39     1.000000   180.000000     0.000000     1.000000     0.000000     0.000000     0.000000     0.000000
   40    -1.000000   180.000000     0.000000     1.000000     0.000000     0.000000     0.000000     0.000000
   41     1.000000   120.000000     0.577350     0.577350    -0.577350     0.000000     0.000000     0.000000
   42    -1.000000   120.000000     0.577350     0.577350    -0.577350     0.000000     0.000000     0.000000
   43     1.000000   180.000000     0.000000    -0.707107     0.707107     0.000000     0.000000     0.000000
   44    -1.000000   180.000000     0.000000    -0.707107     0.707107     0.000000     0.000000     0.000000
   45     1.000000   180.000000     0.707107    -0.707107     0.000000     0.000000     0.000000     0.000000
   46    -1.000000   180.000000     0.707107    -0.707107     0.000000     0.000000     0.000000     0.000000
   47     1.000000   180.000000     0.707107     0.000000    -0.707107     0.000000     0.000000     0.000000
   48    -1.000000   180.000000     0.707107     0.000000    -0.707107     0.000000     0.000000     0.000000
 
 Subroutine IBZKPT returns following result:
 ===========================================
 
 Found    455 irreducible k-points:
 
 Following reciprocal coordinates:
            Coordinates               Weight
  0.000000  0.000000  0.000000      1.000000
  0.040000  0.000000  0.000000      6.000000
  0.080000  0.000000  0.000000      6.000000
  0.120000  0.000000  0.000000      6.000000
  0.160000  0.000000  0.000000      6.000000
  0.200000  0.000000  0.000000      6.000000
  0.240000  0.000000  0.000000      6.000000
  0.280000  0.000000  0.000000      6.000000
  0.320000  0.000000  0.000000      6.000000
  0.360000  0.000000  0.000000      6.000000
  0.400000  0.000000  0.000000      6.000000
  0.440000  0.000000  0.000000      6.000000
  0.480000  0.000000  0.000000      6.000000
  0.040000  0.040000  0.000000     12.000000
  0.080000  0.040000  0.000000     24.000000
  0.120000  0.040000  0.000000     24.000000
  0.160000  0.040000  0.000000     24.000000
  0.200000  0.040000  0.000000     24.000000
  0.240000  0.040000  0.000000     24.000000
  0.280000  0.040000  0.000000     24.000000
  0.320000  0.040000  0.000000     24.000000
  0.360000  0.040000  0.000000     24.000000
  0.400000  0.040000  0.000000     24.000000
  0.440000  0.040000  0.000000     24.000000
  0.480000  0.040000  0.000000     24.000000
  0.080000  0.080000  0.000000     12.000000
  0.120000  0.080000  0.000000     24.000000
  0.160000  0.080000  0.000000     24.000000
  0.200000  0.080000  0.000000     24.000000
  0.240000  0.080000  0.000000     24.000000
  0.280000  0.080000  0.000000     24.000000
  0.320000  0.080000  0.000000     24.000000
  0.360000  0.080000  0.000000     24.000000
  0.400000  0.080000  0.000000     24.000000
  0.440000  0.080000  0.000000     24.000000
  0.480000  0.080000  0.000000     24.000000
  0.120000  0.120000  0.000000     12.000000
  0.160000  0.120000  0.000000     24.000000
  0.200000  0.120000  0.000000     24.000000
  0.240000  0.120000  0.000000     24.000000
  0.280000  0.120000  0.000000     24.000000
  0.320000  0.120000  0.000000     24.000000
  0.360000  0.120000  0.000000     24.000000
  0.400000  0.120000  0.000000     24.000000
  0.440000  0.120000  0.000000     24.000000
  0.480000  0.120000  0.000000     24.000000
  0.160000  0.160000  0.000000     12.000000
  0.200000  0.160000  0.000000     24.000000
  0.240000  0.160000  0.000000     24.000000
  0.280000  0.160000  0.000000     24.000000
  0.320000  0.160000  0.000000     24.000000
  0.360000  0.160000  0.000000     24.000000
  0.400000  0.160000  0.000000     24.000000
  0.440000  0.160000  0.000000     24.000000
  0.480000  0.160000  0.000000     24.000000
  0.200000  0.200000  0.000000     12.000000
  0.240000  0.200000  0.000000     24.000000
  0.280000  0.200000  0.000000     24.000000
  0.320000  0.200000  0.000000     24.000000
  0.360000  0.200000  0.000000     24.000000
  0.400000  0.200000  0.000000     24.000000
  0.440000  0.200000  0.000000     24.000000
  0.480000  0.200000  0.000000     24.000000
  0.240000  0.240000  0.000000     12.000000
  0.280000  0.240000  0.000000     24.000000
  0.320000  0.240000  0.000000     24.000000
  0.360000  0.240000  0.000000     24.000000
  0.400000  0.240000  0.000000     24.000000
  0.440000  0.240000  0.000000     24.000000
  0.480000  0.240000  0.000000     24.000000
  0.280000  0.280000  0.000000     12.000000
  0.320000  0.280000  0.000000     24.000000
  0.360000  0.280000  0.000000     24.000000
  0.400000  0.280000  0.000000     24.000000
  0.440000  0.280000  0.000000     24.000000
  0.480000  0.280000  0.000000     24.000000
  0.320000  0.320000  0.000000     12.000000
  0.360000  0.320000  0.000000     24.000000
  0.400000  0.320000  0.000000     24.000000
  0.440000  0.320000  0.000000     24.000000
  0.480000  0.320000  0.000000     24.000000
  0.360000  0.360000  0.000000     12.000000
  0.400000  0.360000  0.000000     24.000000
  0.440000  0.360000  0.000000     24.000000
  0.480000  0.360000  0.000000     24.000000
  0.400000  0.400000  0.000000     12.000000
  0.440000  0.400000  0.000000     24.000000
  0.480000  0.400000  0.000000     24.000000
  0.440000  0.440000  0.000000     12.000000
  0.480000  0.440000  0.000000     24.000000
  0.480000  0.480000  0.000000     12.000000
  0.040000  0.040000  0.040000      8.000000
  0.080000  0.040000  0.040000     24.000000
  0.120000  0.040000  0.040000     24.000000
  0.160000  0.040000  0.040000     24.000000
  0.200000  0.040000  0.040000     24.000000
  0.240000  0.040000  0.040000     24.000000
  0.280000  0.040000  0.040000     24.000000
  0.320000  0.040000  0.040000     24.000000
  0.360000  0.040000  0.040000     24.000000
  0.400000  0.040000  0.040000     24.000000
  0.440000  0.040000  0.040000     24.000000
  0.480000  0.040000  0.040000     24.000000
  0.080000  0.080000  0.040000     24.000000
  0.120000  0.080000  0.040000     48.000000
  0.160000  0.080000  0.040000     48.000000
  0.200000  0.080000  0.040000     48.000000
  0.240000  0.080000  0.040000     48.000000
  0.280000  0.080000  0.040000     48.000000
  0.320000  0.080000  0.040000     48.000000
  0.360000  0.080000  0.040000     48.000000
  0.400000  0.080000  0.040000     48.000000
  0.440000  0.080000  0.040000     48.000000
  0.480000  0.080000  0.040000     48.000000
  0.120000  0.120000  0.040000     24.000000
  0.160000  0.120000  0.040000     48.000000
  0.200000  0.120000  0.040000     48.000000
  0.240000  0.120000  0.040000     48.000000
  0.280000  0.120000  0.040000     48.000000
  0.320000  0.120000  0.040000     48.000000
  0.360000  0.120000  0.040000     48.000000
  0.400000  0.120000  0.040000     48.000000
  0.440000  0.120000  0.040000     48.000000
  0.480000  0.120000  0.040000     48.000000
  0.160000  0.160000  0.040000     24.000000
  0.200000  0.160000  0.040000     48.000000
  0.240000  0.160000  0.040000     48.000000
  0.280000  0.160000  0.040000     48.000000
  0.320000  0.160000  0.040000     48.000000
  0.360000  0.160000  0.040000     48.000000
  0.400000  0.160000  0.040000     48.000000
  0.440000  0.160000  0.040000     48.000000
  0.480000  0.160000  0.040000     48.000000
  0.200000  0.200000  0.040000     24.000000
  0.240000  0.200000  0.040000     48.000000
  0.280000  0.200000  0.040000     48.000000
  0.320000  0.200000  0.040000     48.000000
  0.360000  0.200000  0.040000     48.000000
  0.400000  0.200000  0.040000     48.000000
  0.440000  0.200000  0.040000     48.000000
  0.480000  0.200000  0.040000     48.000000
  0.240000  0.240000  0.040000     24.000000
  0.280000  0.240000  0.040000     48.000000
  0.320000  0.240000  0.040000     48.000000
  0.360000  0.240000  0.040000     48.000000
  0.400000  0.240000  0.040000     48.000000
  0.440000  0.240000  0.040000     48.000000
  0.480000  0.240000  0.040000     48.000000
  0.280000  0.280000  0.040000     24.000000
  0.320000  0.280000  0.040000     48.000000
  0.360000  0.280000  0.040000     48.000000
  0.400000  0.280000  0.040000     48.000000
  0.440000  0.280000  0.040000     48.000000
  0.480000  0.280000  0.040000     48.000000
  0.320000  0.320000  0.040000     24.000000
  0.360000  0.320000  0.040000     48.000000
  0.400000  0.320000  0.040000     48.000000
  0.440000  0.320000  0.040000     48.000000
  0.480000  0.320000  0.040000     48.000000
  0.360000  0.360000  0.040000     24.000000
  0.400000  0.360000  0.040000     48.000000
  0.440000  0.360000  0.040000     48.000000
  0.480000  0.360000  0.040000     48.000000
  0.400000  0.400000  0.040000     24.000000
  0.440000  0.400000  0.040000     48.000000
  0.480000  0.400000  0.040000     48.000000
  0.440000  0.440000  0.040000     24.000000
  0.480000  0.440000  0.040000     48.000000
  0.480000  0.480000  0.040000     24.000000
  0.080000  0.080000  0.080000      8.000000
  0.120000  0.080000  0.080000     24.000000
  0.160000  0.080000  0.080000     24.000000
  0.200000  0.080000  0.080000     24.000000
  0.240000  0.080000  0.080000     24.000000
  0.280000  0.080000  0.080000     24.000000
  0.320000  0.080000  0.080000     24.000000
  0.360000  0.080000  0.080000     24.000000
  0.400000  0.080000  0.080000     24.000000
  0.440000  0.080000  0.080000     24.000000
  0.480000  0.080000  0.080000     24.000000
  0.120000  0.120000  0.080000     24.000000
  0.160000  0.120000  0.080000     48.000000
  0.200000  0.120000  0.080000     48.000000
  0.240000  0.120000  0.080000     48.000000
  0.280000  0.120000  0.080000     48.000000
  0.320000  0.120000  0.080000     48.000000
  0.360000  0.120000  0.080000     48.000000
  0.400000  0.120000  0.080000     48.000000
  0.440000  0.120000  0.080000     48.000000
  0.480000  0.120000  0.080000     48.000000
  0.160000  0.160000  0.080000     24.000000
  0.200000  0.160000  0.080000     48.000000
  0.240000  0.160000  0.080000     48.000000
  0.280000  0.160000  0.080000     48.000000
  0.320000  0.160000  0.080000     48.000000
  0.360000  0.160000  0.080000     48.000000
  0.400000  0.160000  0.080000     48.000000
  0.440000  0.160000  0.080000     48.000000
  0.480000  0.160000  0.080000     48.000000
  0.200000  0.200000  0.080000     24.000000
  0.240000  0.200000  0.080000     48.000000
  0.280000  0.200000  0.080000     48.000000
  0.320000  0.200000  0.080000     48.000000
  0.360000  0.200000  0.080000     48.000000
  0.400000  0.200000  0.080000     48.000000
  0.440000  0.200000  0.080000     48.000000
  0.480000  0.200000  0.080000     48.000000
  0.240000  0.240000  0.080000     24.000000
  0.280000  0.240000  0.080000     48.000000
  0.320000  0.240000  0.080000     48.000000
  0.360000  0.240000  0.080000     48.000000
  0.400000  0.240000  0.080000     48.000000
  0.440000  0.240000  0.080000     48.000000
  0.480000  0.240000  0.080000     48.000000
  0.280000  0.280000  0.080000     24.000000
  0.320000  0.280000  0.080000     48.000000
  0.360000  0.280000  0.080000     48.000000
  0.400000  0.280000  0.080000     48.000000
  0.440000  0.280000  0.080000     48.000000
  0.480000  0.280000  0.080000     48.000000
  0.320000  0.320000  0.080000     24.000000
  0.360000  0.320000  0.080000     48.000000
  0.400000  0.320000  0.080000     48.000000
  0.440000  0.320000  0.080000     48.000000
  0.480000  0.320000  0.080000     48.000000
  0.360000  0.360000  0.080000     24.000000
  0.400000  0.360000  0.080000     48.000000
  0.440000  0.360000  0.080000     48.000000
  0.480000  0.360000  0.080000     48.000000
  0.400000  0.400000  0.080000     24.000000
  0.440000  0.400000  0.080000     48.000000
  0.480000  0.400000  0.080000     48.000000
  0.440000  0.440000  0.080000     24.000000
  0.480000  0.440000  0.080000     48.000000
  0.480000  0.480000  0.080000     24.000000
  0.120000  0.120000  0.120000      8.000000
  0.160000  0.120000  0.120000     24.000000
  0.200000  0.120000  0.120000     24.000000
  0.240000  0.120000  0.120000     24.000000
  0.280000  0.120000  0.120000     24.000000
  0.320000  0.120000  0.120000     24.000000
  0.360000  0.120000  0.120000     24.000000
  0.400000  0.120000  0.120000     24.000000
  0.440000  0.120000  0.120000     24.000000
  0.480000  0.120000  0.120000     24.000000
  0.160000  0.160000  0.120000     24.000000
  0.200000  0.160000  0.120000     48.000000
  0.240000  0.160000  0.120000     48.000000
  0.280000  0.160000  0.120000     48.000000
  0.320000  0.160000  0.120000     48.000000
  0.360000  0.160000  0.120000     48.000000
  0.400000  0.160000  0.120000     48.000000
  0.440000  0.160000  0.120000     48.000000
  0.480000  0.160000  0.120000     48.000000
  0.200000  0.200000  0.120000     24.000000
  0.240000  0.200000  0.120000     48.000000
  0.280000  0.200000  0.120000     48.000000
  0.320000  0.200000  0.120000     48.000000
  0.360000  0.200000  0.120000     48.000000
  0.400000  0.200000  0.120000     48.000000
  0.440000  0.200000  0.120000     48.000000
  0.480000  0.200000  0.120000     48.000000
  0.240000  0.240000  0.120000     24.000000
  0.280000  0.240000  0.120000     48.000000
  0.320000  0.240000  0.120000     48.000000
  0.360000  0.240000  0.120000     48.000000
  0.400000  0.240000  0.120000     48.000000
  0.440000  0.240000  0.120000     48.000000
  0.480000  0.240000  0.120000     48.000000
  0.280000  0.280000  0.120000     24.000000
  0.320000  0.280000  0.120000     48.000000
  0.360000  0.280000  0.120000     48.000000
  0.400000  0.280000  0.120000     48.000000
  0.440000  0.280000  0.120000     48.000000
  0.480000  0.280000  0.120000     48.000000
  0.320000  0.320000  0.120000     24.000000
  0.360000  0.320000  0.120000     48.000000
  0.400000  0.320000  0.120000     48.000000
  0.440000  0.320000  0.120000     48.000000
  0.480000  0.320000  0.120000     48.000000
  0.360000  0.360000  0.120000     24.000000
  0.400000  0.360000  0.120000     48.000000
  0.440000  0.360000  0.120000     48.000000
  0.480000  0.360000  0.120000     48.000000
  0.400000  0.400000  0.120000     24.000000
  0.440000  0.400000  0.120000     48.000000
  0.480000  0.400000  0.120000     48.000000
  0.440000  0.440000  0.120000     24.000000
  0.480000  0.440000  0.120000     48.000000
  0.480000  0.480000  0.120000     24.000000
  0.160000  0.160000  0.160000      8.000000
  0.200000  0.160000  0.160000     24.000000
  0.240000  0.160000  0.160000     24.000000
  0.280000  0.160000  0.160000     24.000000
  0.320000  0.160000  0.160000     24.000000
  0.360000  0.160000  0.160000     24.000000
  0.400000  0.160000  0.160000     24.000000
  0.440000  0.160000  0.160000     24.000000
  0.480000  0.160000  0.160000     24.000000
  0.200000  0.200000  0.160000     24.000000
  0.240000  0.200000  0.160000     48.000000
  0.280000  0.200000  0.160000     48.000000
  0.320000  0.200000  0.160000     48.000000
  0.360000  0.200000  0.160000     48.000000
  0.400000  0.200000  0.160000     48.000000
  0.440000  0.200000  0.160000     48.000000
  0.480000  0.200000  0.160000     48.000000
  0.240000  0.240000  0.160000     24.000000
  0.280000  0.240000  0.160000     48.000000
  0.320000  0.240000  0.160000     48.000000
  0.360000  0.240000  0.160000     48.000000
  0.400000  0.240000  0.160000     48.000000
  0.440000  0.240000  0.160000     48.000000
  0.480000  0.240000  0.160000     48.000000
  0.280000  0.280000  0.160000     24.000000
  0.320000  0.280000  0.160000     48.000000
  0.360000  0.280000  0.160000     48.000000
  0.400000  0.280000  0.160000     48.000000
  0.440000  0.280000  0.160000     48.000000
  0.480000  0.280000  0.160000     48.000000
  0.320000  0.320000  0.160000     24.000000
  0.360000  0.320000  0.160000     48.000000
  0.400000  0.320000  0.160000     48.000000
  0.440000  0.320000  0.160000     48.000000
  0.480000  0.320000  0.160000     48.000000
  0.360000  0.360000  0.160000     24.000000
  0.400000  0.360000  0.160000     48.000000
  0.440000  0.360000  0.160000     48.000000
  0.480000  0.360000  0.160000     48.000000
  0.400000  0.400000  0.160000     24.000000
  0.440000  0.400000  0.160000     48.000000
  0.480000  0.400000  0.160000     48.000000
  0.440000  0.440000  0.160000     24.000000
  0.480000  0.440000  0.160000     48.000000
  0.480000  0.480000  0.160000     24.000000
  0.200000  0.200000  0.200000      8.000000
  0.240000  0.200000  0.200000     24.000000
  0.280000  0.200000  0.200000     24.000000
  0.320000  0.200000  0.200000     24.000000
  0.360000  0.200000  0.200000     24.000000
  0.400000  0.200000  0.200000     24.000000
  0.440000  0.200000  0.200000     24.000000
  0.480000  0.200000  0.200000     24.000000
  0.240000  0.240000  0.200000     24.000000
  0.280000  0.240000  0.200000     48.000000
  0.320000  0.240000  0.200000     48.000000
  0.360000  0.240000  0.200000     48.000000
  0.400000  0.240000  0.200000     48.000000
  0.440000  0.240000  0.200000     48.000000
  0.480000  0.240000  0.200000     48.000000
  0.280000  0.280000  0.200000     24.000000
  0.320000  0.280000  0.200000     48.000000
  0.360000  0.280000  0.200000     48.000000
  0.400000  0.280000  0.200000     48.000000
  0.440000  0.280000  0.200000     48.000000
  0.480000  0.280000  0.200000     48.000000
  0.320000  0.320000  0.200000     24.000000
  0.360000  0.320000  0.200000     48.000000
  0.400000  0.320000  0.200000     48.000000
  0.440000  0.320000  0.200000     48.000000
  0.480000  0.320000  0.200000     48.000000
  0.360000  0.360000  0.200000     24.000000
  0.400000  0.360000  0.200000     48.000000
  0.440000  0.360000  0.200000     48.000000
  0.480000  0.360000  0.200000     48.000000
  0.400000  0.400000  0.200000     24.000000
  0.440000  0.400000  0.200000     48.000000
  0.480000  0.400000  0.200000     48.000000
  0.440000  0.440000  0.200000     24.000000
  0.480000  0.440000  0.200000     48.000000
  0.480000  0.480000  0.200000     24.000000
  0.240000  0.240000  0.240000      8.000000
  0.280000  0.240000  0.240000     24.000000
  0.320000  0.240000  0.240000     24.000000
  0.360000  0.240000  0.240000     24.000000
  0.400000  0.240000  0.240000     24.000000
  0.440000  0.240000  0.240000     24.000000
  0.480000  0.240000  0.240000     24.000000
  0.280000  0.280000  0.240000     24.000000
  0.320000  0.280000  0.240000     48.000000
  0.360000  0.280000  0.240000     48.000000
  0.400000  0.280000  0.240000     48.000000
  0.440000  0.280000  0.240000     48.000000
  0.480000  0.280000  0.240000     48.000000
  0.320000  0.320000  0.240000     24.000000
  0.360000  0.320000  0.240000     48.000000
  0.400000  0.320000  0.240000     48.000000
  0.440000  0.320000  0.240000     48.000000
  0.480000  0.320000  0.240000     48.000000
  0.360000  0.360000  0.240000     24.000000
  0.400000  0.360000  0.240000     48.000000
  0.440000  0.360000  0.240000     48.000000
  0.480000  0.360000  0.240000     48.000000
  0.400000  0.400000  0.240000     24.000000
  0.440000  0.400000  0.240000     48.000000
  0.480000  0.400000  0.240000     48.000000
  0.440000  0.440000  0.240000     24.000000
  0.480000  0.440000  0.240000     48.000000
  0.480000  0.480000  0.240000     24.000000
  0.280000  0.280000  0.280000      8.000000
  0.320000  0.280000  0.280000     24.000000
  0.360000  0.280000  0.280000     24.000000
  0.400000  0.280000  0.280000     24.000000
  0.440000  0.280000  0.280000     24.000000
  0.480000  0.280000  0.280000     24.000000
  0.320000  0.320000  0.280000     24.000000
  0.360000  0.320000  0.280000     48.000000
  0.400000  0.320000  0.280000     48.000000
  0.440000  0.320000  0.280000     48.000000
  0.480000  0.320000  0.280000     48.000000
  0.360000  0.360000  0.280000     24.000000
  0.400000  0.360000  0.280000     48.000000
  0.440000  0.360000  0.280000     48.000000
  0.480000  0.360000  0.280000     48.000000
  0.400000  0.400000  0.280000     24.000000
  0.440000  0.400000  0.280000     48.000000
  0.480000  0.400000  0.280000     48.000000
  0.440000  0.440000  0.280000     24.000000
  0.480000  0.440000  0.280000     48.000000
  0.480000  0.480000  0.280000     24.000000
  0.320000  0.320000  0.320000      8.000000
  0.360000  0.320000  0.320000     24.000000
  0.400000  0.320000  0.320000     24.000000
  0.440000  0.320000  0.320000     24.000000
  0.480000  0.320000  0.320000     24.000000
  0.360000  0.360000  0.320000     24.000000
  0.400000  0.360000  0.320000     48.000000
  0.440000  0.360000  0.320000     48.000000
  0.480000  0.360000  0.320000     48.000000
  0.400000  0.400000  0.320000     24.000000
  0.440000  0.400000  0.320000     48.000000
  0.480000  0.400000  0.320000     48.000000
  0.440000  0.440000  0.320000     24.000000
  0.480000  0.440000  0.320000     48.000000
  0.480000  0.480000  0.320000     24.000000
  0.360000  0.360000  0.360000      8.000000
  0.400000  0.360000  0.360000     24.000000
  0.440000  0.360000  0.360000     24.000000
  0.480000  0.360000  0.360000     24.000000
  0.400000  0.400000  0.360000     24.000000
  0.440000  0.400000  0.360000     48.000000
  0.480000  0.400000  0.360000     48.000000
  0.440000  0.440000  0.360000     24.000000
  0.480000  0.440000  0.360000     48.000000
  0.480000  0.480000  0.360000     24.000000
  0.400000  0.400000  0.400000      8.000000
  0.440000  0.400000  0.400000     24.000000
  0.480000  0.400000  0.400000     24.000000
  0.440000  0.440000  0.400000     24.000000
  0.480000  0.440000  0.400000     48.000000
  0.480000  0.480000  0.400000     24.000000
  0.440000  0.440000  0.440000      8.000000
  0.480000  0.440000  0.440000     24.000000
  0.480000  0.480000  0.440000     24.000000
  0.480000  0.480000  0.480000      8.000000
 
 Following cartesian coordinates:
            Coordinates               Weight
  0.000000  0.000000  0.000000      1.000000
  0.014084  0.000000  0.000000      6.000000
  0.028168  0.000000  0.000000      6.000000
  0.042253  0.000000  0.000000      6.000000
  0.056337  0.000000  0.000000      6.000000
  0.070421  0.000000  0.000000      6.000000
  0.084505  0.000000  0.000000      6.000000
  0.098590  0.000000  0.000000      6.000000
  0.112674  0.000000  0.000000      6.000000
  0.126758  0.000000  0.000000      6.000000
  0.140842  0.000000  0.000000      6.000000
  0.154927  0.000000  0.000000      6.000000
  0.169011  0.000000  0.000000      6.000000
  0.014084  0.014084  0.000000     12.000000
  0.028168  0.014084  0.000000     24.000000
  0.042253  0.014084  0.000000     24.000000
  0.056337  0.014084  0.000000     24.000000
  0.070421  0.014084  0.000000     24.000000
  0.084505  0.014084  0.000000     24.000000
  0.098590  0.014084  0.000000     24.000000
  0.112674  0.014084  0.000000     24.000000
  0.126758  0.014084  0.000000     24.000000
  0.140842  0.014084  0.000000     24.000000
  0.154927  0.014084  0.000000     24.000000
  0.169011  0.014084  0.000000     24.000000
  0.028168  0.028168  0.000000     12.000000
  0.042253  0.028168  0.000000     24.000000
  0.056337  0.028168  0.000000     24.000000
  0.070421  0.028168  0.000000     24.000000
  0.084505  0.028168  0.000000     24.000000
  0.098590  0.028168  0.000000     24.000000
  0.112674  0.028168  0.000000     24.000000
  0.126758  0.028168  0.000000     24.000000
  0.140842  0.028168  0.000000     24.000000
  0.154927  0.028168  0.000000     24.000000
  0.169011  0.028168  0.000000     24.000000
  0.042253  0.042253  0.000000     12.000000
  0.056337  0.042253  0.000000     24.000000
  0.070421  0.042253  0.000000     24.000000
  0.084505  0.042253  0.000000     24.000000
  0.098590  0.042253  0.000000     24.000000
  0.112674  0.042253  0.000000     24.000000
  0.126758  0.042253  0.000000     24.000000
  0.140842  0.042253  0.000000     24.000000
  0.154927  0.042253  0.000000     24.000000
  0.169011  0.042253  0.000000     24.000000
  0.056337  0.056337  0.000000     12.000000
  0.070421  0.056337  0.000000     24.000000
  0.084505  0.056337  0.000000     24.000000
  0.098590  0.056337  0.000000     24.000000
  0.112674  0.056337  0.000000     24.000000
  0.126758  0.056337  0.000000     24.000000
  0.140842  0.056337  0.000000     24.000000
  0.154927  0.056337  0.000000     24.000000
  0.169011  0.056337  0.000000     24.000000
  0.070421  0.070421  0.000000     12.000000
  0.084505  0.070421  0.000000     24.000000
  0.098590  0.070421  0.000000     24.000000
  0.112674  0.070421  0.000000     24.000000
  0.126758  0.070421  0.000000     24.000000
  0.140842  0.070421  0.000000     24.000000
  0.154927  0.070421  0.000000     24.000000
  0.169011  0.070421  0.000000     24.000000
  0.084505  0.084505  0.000000     12.000000
  0.098590  0.084505  0.000000     24.000000
  0.112674  0.084505  0.000000     24.000000
  0.126758  0.084505  0.000000     24.000000
  0.140842  0.084505  0.000000     24.000000
  0.154927  0.084505  0.000000     24.000000
  0.169011  0.084505  0.000000     24.000000
  0.098590  0.098590  0.000000     12.000000
  0.112674  0.098590  0.000000     24.000000
  0.126758  0.098590  0.000000     24.000000
  0.140842  0.098590  0.000000     24.000000
  0.154927  0.098590  0.000000     24.000000
  0.169011  0.098590  0.000000     24.000000
  0.112674  0.112674  0.000000     12.000000
  0.126758  0.112674  0.000000     24.000000
  0.140842  0.112674  0.000000     24.000000
  0.154927  0.112674  0.000000     24.000000
  0.169011  0.112674  0.000000     24.000000
  0.126758  0.126758  0.000000     12.000000
  0.140842  0.126758  0.000000     24.000000
  0.154927  0.126758  0.000000     24.000000
  0.169011  0.126758  0.000000     24.000000
  0.140842  0.140842  0.000000     12.000000
  0.154927  0.140842  0.000000     24.000000
  0.169011  0.140842  0.000000     24.000000
  0.154927  0.154927  0.000000     12.000000
  0.169011  0.154927  0.000000     24.000000
  0.169011  0.169011  0.000000     12.000000
  0.014084  0.014084  0.014084      8.000000
  0.028168  0.014084  0.014084     24.000000
  0.042253  0.014084  0.014084     24.000000
  0.056337  0.014084  0.014084     24.000000
  0.070421  0.014084  0.014084     24.000000
  0.084505  0.014084  0.014084     24.000000
  0.098590  0.014084  0.014084     24.000000
  0.112674  0.014084  0.014084     24.000000
  0.126758  0.014084  0.014084     24.000000
  0.140842  0.014084  0.014084     24.000000
  0.154927  0.014084  0.014084     24.000000
  0.169011  0.014084  0.014084     24.000000
  0.028168  0.028168  0.014084     24.000000
  0.042253  0.028168  0.014084     48.000000
  0.056337  0.028168  0.014084     48.000000
  0.070421  0.028168  0.014084     48.000000
  0.084505  0.028168  0.014084     48.000000
  0.098590  0.028168  0.014084     48.000000
  0.112674  0.028168  0.014084     48.000000
  0.126758  0.028168  0.014084     48.000000
  0.140842  0.028168  0.014084     48.000000
  0.154927  0.028168  0.014084     48.000000
  0.169011  0.028168  0.014084     48.000000
  0.042253  0.042253  0.014084     24.000000
  0.056337  0.042253  0.014084     48.000000
  0.070421  0.042253  0.014084     48.000000
  0.084505  0.042253  0.014084     48.000000
  0.098590  0.042253  0.014084     48.000000
  0.112674  0.042253  0.014084     48.000000
  0.126758  0.042253  0.014084     48.000000
  0.140842  0.042253  0.014084     48.000000
  0.154927  0.042253  0.014084     48.000000
  0.169011  0.042253  0.014084     48.000000
  0.056337  0.056337  0.014084     24.000000
  0.070421  0.056337  0.014084     48.000000
  0.084505  0.056337  0.014084     48.000000
  0.098590  0.056337  0.014084     48.000000
  0.112674  0.056337  0.014084     48.000000
  0.126758  0.056337  0.014084     48.000000
  0.140842  0.056337  0.014084     48.000000
  0.154927  0.056337  0.014084     48.000000
  0.169011  0.056337  0.014084     48.000000
  0.070421  0.070421  0.014084     24.000000
  0.084505  0.070421  0.014084     48.000000
  0.098590  0.070421  0.014084     48.000000
  0.112674  0.070421  0.014084     48.000000
  0.126758  0.070421  0.014084     48.000000
  0.140842  0.070421  0.014084     48.000000
  0.154927  0.070421  0.014084     48.000000
  0.169011  0.070421  0.014084     48.000000
  0.084505  0.084505  0.014084     24.000000
  0.098590  0.084505  0.014084     48.000000
  0.112674  0.084505  0.014084     48.000000
  0.126758  0.084505  0.014084     48.000000
  0.140842  0.084505  0.014084     48.000000
  0.154927  0.084505  0.014084     48.000000
  0.169011  0.084505  0.014084     48.000000
  0.098590  0.098590  0.014084     24.000000
  0.112674  0.098590  0.014084     48.000000
  0.126758  0.098590  0.014084     48.000000
  0.140842  0.098590  0.014084     48.000000
  0.154927  0.098590  0.014084     48.000000
  0.169011  0.098590  0.014084     48.000000
  0.112674  0.112674  0.014084     24.000000
  0.126758  0.112674  0.014084     48.000000
  0.140842  0.112674  0.014084     48.000000
  0.154927  0.112674  0.014084     48.000000
  0.169011  0.112674  0.014084     48.000000
  0.126758  0.126758  0.014084     24.000000
  0.140842  0.126758  0.014084     48.000000
  0.154927  0.126758  0.014084     48.000000
  0.169011  0.126758  0.014084     48.000000
  0.140842  0.140842  0.014084     24.000000
  0.154927  0.140842  0.014084     48.000000
  0.169011  0.140842  0.014084     48.000000
  0.154927  0.154927  0.014084     24.000000
  0.169011  0.154927  0.014084     48.000000
  0.169011  0.169011  0.014084     24.000000
  0.028168  0.028168  0.028168      8.000000
  0.042253  0.028168  0.028168     24.000000
  0.056337  0.028168  0.028168     24.000000
  0.070421  0.028168  0.028168     24.000000
  0.084505  0.028168  0.028168     24.000000
  0.098590  0.028168  0.028168     24.000000
  0.112674  0.028168  0.028168     24.000000
  0.126758  0.028168  0.028168     24.000000
  0.140842  0.028168  0.028168     24.000000
  0.154927  0.028168  0.028168     24.000000
  0.169011  0.028168  0.028168     24.000000
  0.042253  0.042253  0.028168     24.000000
  0.056337  0.042253  0.028168     48.000000
  0.070421  0.042253  0.028168     48.000000
  0.084505  0.042253  0.028168     48.000000
  0.098590  0.042253  0.028168     48.000000
  0.112674  0.042253  0.028168     48.000000
  0.126758  0.042253  0.028168     48.000000
  0.140842  0.042253  0.028168     48.000000
  0.154927  0.042253  0.028168     48.000000
  0.169011  0.042253  0.028168     48.000000
  0.056337  0.056337  0.028168     24.000000
  0.070421  0.056337  0.028168     48.000000
  0.084505  0.056337  0.028168     48.000000
  0.098590  0.056337  0.028168     48.000000
  0.112674  0.056337  0.028168     48.000000
  0.126758  0.056337  0.028168     48.000000
  0.140842  0.056337  0.028168     48.000000
  0.154927  0.056337  0.028168     48.000000
  0.169011  0.056337  0.028168     48.000000
  0.070421  0.070421  0.028168     24.000000
  0.084505  0.070421  0.028168     48.000000
  0.098590  0.070421  0.028168     48.000000
  0.112674  0.070421  0.028168     48.000000
  0.126758  0.070421  0.028168     48.000000
  0.140842  0.070421  0.028168     48.000000
  0.154927  0.070421  0.028168     48.000000
  0.169011  0.070421  0.028168     48.000000
  0.084505  0.084505  0.028168     24.000000
  0.098590  0.084505  0.028168     48.000000
  0.112674  0.084505  0.028168     48.000000
  0.126758  0.084505  0.028168     48.000000
  0.140842  0.084505  0.028168     48.000000
  0.154927  0.084505  0.028168     48.000000
  0.169011  0.084505  0.028168     48.000000
  0.098590  0.098590  0.028168     24.000000
  0.112674  0.098590  0.028168     48.000000
  0.126758  0.098590  0.028168     48.000000
  0.140842  0.098590  0.028168     48.000000
  0.154927  0.098590  0.028168     48.000000
  0.169011  0.098590  0.028168     48.000000
  0.112674  0.112674  0.028168     24.000000
  0.126758  0.112674  0.028168     48.000000
  0.140842  0.112674  0.028168     48.000000
  0.154927  0.112674  0.028168     48.000000
  0.169011  0.112674  0.028168     48.000000
  0.126758  0.126758  0.028168     24.000000
  0.140842  0.126758  0.028168     48.000000
  0.154927  0.126758  0.028168     48.000000
  0.169011  0.126758  0.028168     48.000000
  0.140842  0.140842  0.028168     24.000000
  0.154927  0.140842  0.028168     48.000000
  0.169011  0.140842  0.028168     48.000000
  0.154927  0.154927  0.028168     24.000000
  0.169011  0.154927  0.028168     48.000000
  0.169011  0.169011  0.028168     24.000000
  0.042253  0.042253  0.042253      8.000000
  0.056337  0.042253  0.042253     24.000000
  0.070421  0.042253  0.042253     24.000000
  0.084505  0.042253  0.042253     24.000000
  0.098590  0.042253  0.042253     24.000000
  0.112674  0.042253  0.042253     24.000000
  0.126758  0.042253  0.042253     24.000000
  0.140842  0.042253  0.042253     24.000000
  0.154927  0.042253  0.042253     24.000000
  0.169011  0.042253  0.042253     24.000000
  0.056337  0.056337  0.042253     24.000000
  0.070421  0.056337  0.042253     48.000000
  0.084505  0.056337  0.042253     48.000000
  0.098590  0.056337  0.042253     48.000000
  0.112674  0.056337  0.042253     48.000000
  0.126758  0.056337  0.042253     48.000000
  0.140842  0.056337  0.042253     48.000000
  0.154927  0.056337  0.042253     48.000000
  0.169011  0.056337  0.042253     48.000000
  0.070421  0.070421  0.042253     24.000000
  0.084505  0.070421  0.042253     48.000000
  0.098590  0.070421  0.042253     48.000000
  0.112674  0.070421  0.042253     48.000000
  0.126758  0.070421  0.042253     48.000000
  0.140842  0.070421  0.042253     48.000000
  0.154927  0.070421  0.042253     48.000000
  0.169011  0.070421  0.042253     48.000000
  0.084505  0.084505  0.042253     24.000000
  0.098590  0.084505  0.042253     48.000000
  0.112674  0.084505  0.042253     48.000000
  0.126758  0.084505  0.042253     48.000000
  0.140842  0.084505  0.042253     48.000000
  0.154927  0.084505  0.042253     48.000000
  0.169011  0.084505  0.042253     48.000000
  0.098590  0.098590  0.042253     24.000000
  0.112674  0.098590  0.042253     48.000000
  0.126758  0.098590  0.042253     48.000000
  0.140842  0.098590  0.042253     48.000000
  0.154927  0.098590  0.042253     48.000000
  0.169011  0.098590  0.042253     48.000000
  0.112674  0.112674  0.042253     24.000000
  0.126758  0.112674  0.042253     48.000000
  0.140842  0.112674  0.042253     48.000000
  0.154927  0.112674  0.042253     48.000000
  0.169011  0.112674  0.042253     48.000000
  0.126758  0.126758  0.042253     24.000000
  0.140842  0.126758  0.042253     48.000000
  0.154927  0.126758  0.042253     48.000000
  0.169011  0.126758  0.042253     48.000000
  0.140842  0.140842  0.042253     24.000000
  0.154927  0.140842  0.042253     48.000000
  0.169011  0.140842  0.042253     48.000000
  0.154927  0.154927  0.042253     24.000000
  0.169011  0.154927  0.042253     48.000000
  0.169011  0.169011  0.042253     24.000000
  0.056337  0.056337  0.056337      8.000000
  0.070421  0.056337  0.056337     24.000000
  0.084505  0.056337  0.056337     24.000000
  0.098590  0.056337  0.056337     24.000000
  0.112674  0.056337  0.056337     24.000000
  0.126758  0.056337  0.056337     24.000000
  0.140842  0.056337  0.056337     24.000000
  0.154927  0.056337  0.056337     24.000000
  0.169011  0.056337  0.056337     24.000000
  0.070421  0.070421  0.056337     24.000000
  0.084505  0.070421  0.056337     48.000000
  0.098590  0.070421  0.056337     48.000000
  0.112674  0.070421  0.056337     48.000000
  0.126758  0.070421  0.056337     48.000000
  0.140842  0.070421  0.056337     48.000000
  0.154927  0.070421  0.056337     48.000000
  0.169011  0.070421  0.056337     48.000000
  0.084505  0.084505  0.056337     24.000000
  0.098590  0.084505  0.056337     48.000000
  0.112674  0.084505  0.056337     48.000000
  0.126758  0.084505  0.056337     48.000000
  0.140842  0.084505  0.056337     48.000000
  0.154927  0.084505  0.056337     48.000000
  0.169011  0.084505  0.056337     48.000000
  0.098590  0.098590  0.056337     24.000000
  0.112674  0.098590  0.056337     48.000000
  0.126758  0.098590  0.056337     48.000000
  0.140842  0.098590  0.056337     48.000000
  0.154927  0.098590  0.056337     48.000000
  0.169011  0.098590  0.056337     48.000000
  0.112674  0.112674  0.056337     24.000000
  0.126758  0.112674  0.056337     48.000000
  0.140842  0.112674  0.056337     48.000000
  0.154927  0.112674  0.056337     48.000000
  0.169011  0.112674  0.056337     48.000000
  0.126758  0.126758  0.056337     24.000000
  0.140842  0.126758  0.056337     48.000000
  0.154927  0.126758  0.056337     48.000000
  0.169011  0.126758  0.056337     48.000000
  0.140842  0.140842  0.056337     24.000000
  0.154927  0.140842  0.056337     48.000000
  0.169011  0.140842  0.056337     48.000000
  0.154927  0.154927  0.056337     24.000000
  0.169011  0.154927  0.056337     48.000000
  0.169011  0.169011  0.056337     24.000000
  0.070421  0.070421  0.070421      8.000000
  0.084505  0.070421  0.070421     24.000000
  0.098590  0.070421  0.070421     24.000000
  0.112674  0.070421  0.070421     24.000000
  0.126758  0.070421  0.070421     24.000000
  0.140842  0.070421  0.070421     24.000000
  0.154927  0.070421  0.070421     24.000000
  0.169011  0.070421  0.070421     24.000000
  0.084505  0.084505  0.070421     24.000000
  0.098590  0.084505  0.070421     48.000000
  0.112674  0.084505  0.070421     48.000000
  0.126758  0.084505  0.070421     48.000000
  0.140842  0.084505  0.070421     48.000000
  0.154927  0.084505  0.070421     48.000000
  0.169011  0.084505  0.070421     48.000000
  0.098590  0.098590  0.070421     24.000000
  0.112674  0.098590  0.070421     48.000000
  0.126758  0.098590  0.070421     48.000000
  0.140842  0.098590  0.070421     48.000000
  0.154927  0.098590  0.070421     48.000000
  0.169011  0.098590  0.070421     48.000000
  0.112674  0.112674  0.070421     24.000000
  0.126758  0.112674  0.070421     48.000000
  0.140842  0.112674  0.070421     48.000000
  0.154927  0.112674  0.070421     48.000000
  0.169011  0.112674  0.070421     48.000000
  0.126758  0.126758  0.070421     24.000000
  0.140842  0.126758  0.070421     48.000000
  0.154927  0.126758  0.070421     48.000000
  0.169011  0.126758  0.070421     48.000000
  0.140842  0.140842  0.070421     24.000000
  0.154927  0.140842  0.070421     48.000000
  0.169011  0.140842  0.070421     48.000000
  0.154927  0.154927  0.070421     24.000000
  0.169011  0.154927  0.070421     48.000000
  0.169011  0.169011  0.070421     24.000000
  0.084505  0.084505  0.084505      8.000000
  0.098590  0.084505  0.084505     24.000000
  0.112674  0.084505  0.084505     24.000000
  0.126758  0.084505  0.084505     24.000000
  0.140842  0.084505  0.084505     24.000000
  0.154927  0.084505  0.084505     24.000000
  0.169011  0.084505  0.084505     24.000000
  0.098590  0.098590  0.084505     24.000000
  0.112674  0.098590  0.084505     48.000000
  0.126758  0.098590  0.084505     48.000000
  0.140842  0.098590  0.084505     48.000000
  0.154927  0.098590  0.084505     48.000000
  0.169011  0.098590  0.084505     48.000000
  0.112674  0.112674  0.084505     24.000000
  0.126758  0.112674  0.084505     48.000000
  0.140842  0.112674  0.084505     48.000000
  0.154927  0.112674  0.084505     48.000000
  0.169011  0.112674  0.084505     48.000000
  0.126758  0.126758  0.084505     24.000000
  0.140842  0.126758  0.084505     48.000000
  0.154927  0.126758  0.084505     48.000000
  0.169011  0.126758  0.084505     48.000000
  0.140842  0.140842  0.084505     24.000000
  0.154927  0.140842  0.084505     48.000000
  0.169011  0.140842  0.084505     48.000000
  0.154927  0.154927  0.084505     24.000000
  0.169011  0.154927  0.084505     48.000000
  0.169011  0.169011  0.084505     24.000000
  0.098590  0.098590  0.098590      8.000000
  0.112674  0.098590  0.098590     24.000000
  0.126758  0.098590  0.098590     24.000000
  0.140842  0.098590  0.098590     24.000000
  0.154927  0.098590  0.098590     24.000000
  0.169011  0.098590  0.098590     24.000000
  0.112674  0.112674  0.098590     24.000000
  0.126758  0.112674  0.098590     48.000000
  0.140842  0.112674  0.098590     48.000000
  0.154927  0.112674  0.098590     48.000000
  0.169011  0.112674  0.098590     48.000000
  0.126758  0.126758  0.098590     24.000000
  0.140842  0.126758  0.098590     48.000000
  0.154927  0.126758  0.098590     48.000000
  0.169011  0.126758  0.098590     48.000000
  0.140842  0.140842  0.098590     24.000000
  0.154927  0.140842  0.098590     48.000000
  0.169011  0.140842  0.098590     48.000000
  0.154927  0.154927  0.098590     24.000000
  0.169011  0.154927  0.098590     48.000000
  0.169011  0.169011  0.098590     24.000000
  0.112674  0.112674  0.112674      8.000000
  0.126758  0.112674  0.112674     24.000000
  0.140842  0.112674  0.112674     24.000000
  0.154927  0.112674  0.112674     24.000000
  0.169011  0.112674  0.112674     24.000000
  0.126758  0.126758  0.112674     24.000000
  0.140842  0.126758  0.112674     48.000000
  0.154927  0.126758  0.112674     48.000000
  0.169011  0.126758  0.112674     48.000000
  0.140842  0.140842  0.112674     24.000000
  0.154927  0.140842  0.112674     48.000000
  0.169011  0.140842  0.112674     48.000000
  0.154927  0.154927  0.112674     24.000000
  0.169011  0.154927  0.112674     48.000000
  0.169011  0.169011  0.112674     24.000000
  0.126758  0.126758  0.126758      8.000000
  0.140842  0.126758  0.126758     24.000000
  0.154927  0.126758  0.126758     24.000000
  0.169011  0.126758  0.126758     24.000000
  0.140842  0.140842  0.126758     24.000000
  0.154927  0.140842  0.126758     48.000000
  0.169011  0.140842  0.126758     48.000000
  0.154927  0.154927  0.126758     24.000000
  0.169011  0.154927  0.126758     48.000000
  0.169011  0.169011  0.126758     24.000000
  0.140842  0.140842  0.140842      8.000000
  0.154927  0.140842  0.140842     24.000000
  0.169011  0.140842  0.140842     24.000000
  0.154927  0.154927  0.140842     24.000000
  0.169011  0.154927  0.140842     48.000000
  0.169011  0.169011  0.140842     24.000000
  0.154927  0.154927  0.154927      8.000000
  0.169011  0.154927  0.154927     24.000000
  0.169011  0.169011  0.154927     24.000000
  0.169011  0.169011  0.169011      8.000000
 
 TETIRR: Found   7777 inequivalent tetrahedra from    93750


--------------------------------------------------------------------------------------------------------




 Dimension of arrays:
   k-points           NKPTS =    455   k-points in BZ     NKDIM =    455   number of bands    NBANDS=     24
   number of dos      NEDOS =    301   number of ions     NIONS =      2
   non local maximal  LDIM  =      6   non local SUM 2l+1 LMDIM =     18
   total plane-waves  NPLWV =  21952
   max r-space proj   IRMAX =   8080   max aug-charges    IRDMAX=  28578
   dimension x,y,z NGX =    28 NGY =   28 NGZ =   28
   dimension x,y,z NGXF=    56 NGYF=   56 NGZF=   56
   support grid    NGXF=    56 NGYF=   56 NGZF=   56
   ions per type =               2
   NGX,Y,Z   is equivalent  to a cutoff of  16.39, 16.39, 16.39 a.u.
   NGXF,Y,Z  is equivalent  to a cutoff of  32.78, 32.78, 32.78 a.u.

 SYSTEM =  unknown system                          
 POSCAR =  Fe2                                     

 Startparameter for this run:
   NWRITE =      2    write-flag & timer
   PREC   = accura    normal or accurate (medium, high low for compatibility)
   ISTART =      0    job   : 0-new  1-cont  2-samecut
   ICHARG =      2    charge: 1-file 2-atom 10-const
   ISPIN  =      2    spin polarized calculation?
   LNONCOLLINEAR =      F non collinear calculations
   LSORBIT =      F    spin-orbit coupling
   INIWAV =      1    electr: 0-lowe 1-rand  2-diag
   LASPH  =      F    aspherical Exc in radial PAW
   METAGGA=      F    non-selfconsistent MetaGGA calc.

 Electronic Relaxation 1
   ENCUT  =  920.0 eV  67.62 Ry    8.22 a.u.   7.02  7.02  7.02*2*pi/ulx,y,z
   ENINI  =  920.0     initial cutoff
   ENAUG  =  578.3 eV  augmentation charge cutoff
   NELM   =    100;   NELMIN=  2; NELMDL= -5     # of ELM steps 
   EDIFF  = 0.1E-06   stopping-criterion for ELM
   LREAL  =      T    real-space projection
   NLSPLINE    = F    spline interpolate recip. space projectors
   LCOMPAT=      F    compatible to vasp.4.4
   GGA_COMPAT  = T    GGA compatible to vasp.4.4-vasp.4.6
   LMAXPAW     = -100 max onsite density
   LMAXMIX     =    2 max onsite mixed and CHGCAR
   VOSKOWN=      0    Vosko Wilk Nusair interpolation
   ROPT   =   -0.00025
 Ionic relaxation
   EDIFFG = 0.1E-05   stopping-criterion for IOM
   NSW    =      0    number of steps for IOM
   NBLOCK =      1;   KBLOCK =      1    inner block; outer block 
   IBRION =     -1    ionic relax: 0-MD 1-quasi-New 2-CG
   NFREE  =      0    steps in history (QN), initial steepest desc. (CG)
   ISIF   =      3    stress and relaxation
   IWAVPR =     10    prediction:  0-non 1-charg 2-wave 3-comb
   ISYM   =      2    0-nonsym 1-usesym 2-fastsym
   LCORR  =      T    Harris-Foulkes like correction to forces

   POTIM  = 0.5000    time-step for ionic-motion
   TEIN   =    0.0    initial temperature
   TEBEG  =    0.0;   TEEND  =   0.0 temperature during run
   SMASS  =  -3.00    Nose mass-parameter (am)
   estimated Nose-frequenzy (Omega)   =  0.10E-29 period in steps =****** mass=  -0.184E-27a.u.
   SCALEE = 1.0000    scale energy and forces
   NPACO  =    256;   APACO  = 16.0  distance and # of slots for P.C.
   PSTRESS=    0.0 pullay stress

  Mass of Ions in am
   POMASS =  55.85
  Ionic Valenz
   ZVAL   =  14.00
  Atomic Wigner-Seitz radii
   RWIGS  =  -1.00
  virtual crystal weights 
   VCA    =   1.00
   NELECT =      28.0000    total number of electrons
   NUPDOWN=      -1.0000    fix difference up-down

 DOS related values:
   EMIN   =  10.00;   EMAX   =-10.00  energy-range for DOS
   EFERMI =   0.00
   ISMEAR =    -5;   SIGMA  =   0.05  broadening in eV -4-tet -1-fermi 0-gaus

 Electronic relaxation 2 (details)
   IALGO  =     38    algorithm
   LDIAG  =      T    sub-space diagonalisation (order eigenvalues)
   LSUBROT=      F    optimize rotation matrix (better conditioning)
   TURBO    =      0    0=normal 1=particle mesh
   IRESTART =      0    0=no restart 2=restart with 2 vectors
   NREBOOT  =      0    no. of reboots
   NMIN     =      0    reboot dimension
   EREF     =   0.00    reference energy to select bands
   IMIX   =      4    mixing-type and parameters
     AMIX     =   0.40;   BMIX     =  1.00
     AMIX_MAG =   1.60;   BMIX_MAG =  1.00
     AMIN     =   0.10
     WC   =   100.;   INIMIX=   1;  MIXPRE=   1;  MAXMIX= -45

 Intra band minimization:
   WEIMIN = 0.0000     energy-eigenvalue tresh-hold
   EBREAK =  0.10E-08  absolut break condition
   DEPER  =   0.30     relativ break condition  

   TIME   =   0.40     timestep for ELM

  volume/ion in A,a.u.               =      11.45        77.29
  Fermi-wavevector in a.u.,A,eV,Ry     =   1.750389  3.307755 41.686364  3.063861
  Thomas-Fermi vector in A             =   2.821117
 
 Write flags
   LWAVE        =      F    write WAVECAR
   LDOWNSAMPLE  =      F    k-point downsampling of WAVECAR
   LCHARG       =      F    write CHGCAR
   LVTOT        =      F    write LOCPOT, total local potential
   LVHAR        =      F    write LOCPOT, Hartree potential only
   LELF         =      F    write electronic localiz. function (ELF)
   LORBIT       =     11    0 simple, 1 ext, 2 COOP (PROOUT), +10 PAW based schemes


 Dipole corrections
   LMONO  =      F    monopole corrections only (constant potential shift)
   LDIPOL =      F    correct potential (dipole corrections)
   IDIPOL =      0    1-x, 2-y, 3-z, 4-all directions 
   EPSILON=  1.0000000 bulk dielectric constant

 Exchange correlation treatment:
   GGA     =    --    GGA type
   LEXCH   =     8    internal setting for exchange type
   VOSKOWN=      0    Vosko Wilk Nusair interpolation
   LHFCALC =     F    Hartree Fock is set to
   LHFONE  =     F    Hartree Fock one center treatment
   AEXX    =    0.0000 exact exchange contribution

 Linear response parameters
   LEPSILON=     F    determine dielectric tensor
   LRPA    =     F    only Hartree local field effects (RPA)
   LNABLA  =     F    use nabla operator in PAW spheres
   LVEL    =     F    velocity operator in full k-point grid
   LINTERFAST=   F  fast interpolation
   KINTER  =     0    interpolate to denser k-point grid
   CSHIFT  =0.1000    complex shift for real part using Kramers Kronig
   OMEGAMAX=  -1.0    maximum frequency
   DEG_THRESHOLD= 0.2000000E-02 threshold for treating states as degnerate
   RTIME   =   -0.100 relaxation time in fs
  (WPLASMAI=    0.000 imaginary part of plasma frequency in eV, 0.658/RTIME)
   DFIELD  = 0.0000000 0.0000000 0.0000000 field for delta impulse in time
 
 Orbital magnetization related:
   ORBITALMAG=     F  switch on orbital magnetization
   LCHIMAG   =     F  perturbation theory with respect to B field
   DQ        =  0.001000  dq finite difference perturbation B field
   LLRAUG    =     F  two centre corrections for induced B field



--------------------------------------------------------------------------------------------------------


 Static calculation
 charge density and potential will be updated during run
 spin polarized calculation
 Variant of blocked Davidson
 Davidson routine will perform the subspace rotation
 perform sub-space diagonalisation
    after iterative eigenvector-optimisation
 modified Broyden-mixing scheme, WC =      100.0
 initial mixing is a Kerker type mixing with AMIX =  0.4000 and BMIX =      1.0000
 Hartree-type preconditioning will be used
 using additional bands           10
 real space projection scheme for non local part
 use partial core corrections
 calculate Harris-corrections to forces 
   (improved forces if not selfconsistent)
 use gradient corrections 
 use of overlap-Matrix (Vanderbilt PP)
 Fermi weights with tetrahedron method with Bloechl corrections


--------------------------------------------------------------------------------------------------------


  energy-cutoff  :      920.00
  volume of cell :       22.91
      direct lattice vectors                 reciprocal lattice vectors
     2.840052000  0.000000000  0.000000000     0.352106229  0.000000000  0.000000000
     0.000000000  2.840052000  0.000000000     0.000000000  0.352106229  0.000000000
     0.000000000  0.000000000  2.840052000     0.000000000  0.000000000  0.352106229

  length of vectors
     2.840052000  2.840052000  2.840052000     0.352106229  0.352106229  0.352106229


 
 k-points in units of 2pi/SCALE and weight: Automatic mesh                          
   0.00000000  0.00000000  0.00000000       0.000
   0.01408425  0.00000000  0.00000000       0.000
   0.02816850  0.00000000  0.00000000       0.000
   0.04225275  0.00000000  0.00000000       0.000
   0.05633700  0.00000000  0.00000000       0.000
   0.07042125  0.00000000  0.00000000       0.000
   0.08450549  0.00000000  0.00000000       0.000
   0.09858974  0.00000000  0.00000000       0.000
   0.11267399  0.00000000  0.00000000       0.000
   0.12675824  0.00000000  0.00000000       0.000
   0.14084249  0.00000000  0.00000000       0.000
   0.15492674  0.00000000  0.00000000       0.000
   0.16901099  0.00000000  0.00000000       0.000
   0.01408425  0.01408425  0.00000000       0.001
   0.02816850  0.01408425  0.00000000       0.002
   0.04225275  0.01408425  0.00000000       0.002
   0.05633700  0.01408425  0.00000000       0.002
   0.07042125  0.01408425  0.00000000       0.002
   0.08450549  0.01408425  0.00000000       0.002
   0.09858974  0.01408425  0.00000000       0.002
   0.11267399  0.01408425  0.00000000       0.002
   0.12675824  0.01408425  0.00000000       0.002
   0.14084249  0.01408425  0.00000000       0.002
   0.15492674  0.01408425  0.00000000       0.002
   0.16901099  0.01408425  0.00000000       0.002
   0.02816850  0.02816850  0.00000000       0.001
   0.04225275  0.02816850  0.00000000       0.002
   0.05633700  0.02816850  0.00000000       0.002
   0.07042125  0.02816850  0.00000000       0.002
   0.08450549  0.02816850  0.00000000       0.002
   0.09858974  0.02816850  0.00000000       0.002
   0.11267399  0.02816850  0.00000000       0.002
   0.12675824  0.02816850  0.00000000       0.002
   0.14084249  0.02816850  0.00000000       0.002
   0.15492674  0.02816850  0.00000000       0.002
   0.16901099  0.02816850  0.00000000       0.002
   0.04225275  0.04225275  0.00000000       0.001
   0.05633700  0.04225275  0.00000000       0.002
   0.07042125  0.04225275  0.00000000       0.002
   0.08450549  0.04225275  0.00000000       0.002
   0.09858974  0.04225275  0.00000000       0.002
   0.11267399  0.04225275  0.00000000       0.002
   0.12675824  0.04225275  0.00000000       0.002
   0.14084249  0.04225275  0.00000000       0.002
   0.15492674  0.04225275  0.00000000       0.002
   0.16901099  0.04225275  0.00000000       0.002
   0.05633700  0.05633700  0.00000000       0.001
   0.07042125  0.05633700  0.00000000       0.002
   0.08450549  0.05633700  0.00000000       0.002
   0.09858974  0.05633700  0.00000000       0.002
   0.11267399  0.05633700  0.00000000       0.002
   0.12675824  0.05633700  0.00000000       0.002
   0.14084249  0.05633700  0.00000000       0.002
   0.15492674  0.05633700  0.00000000       0.002
   0.16901099  0.05633700  0.00000000       0.002
   0.07042125  0.07042125  0.00000000       0.001
   0.08450549  0.07042125  0.00000000       0.002
   0.09858974  0.07042125  0.00000000       0.002
   0.11267399  0.07042125  0.00000000       0.002
   0.12675824  0.07042125  0.00000000       0.002
   0.14084249  0.07042125  0.00000000       0.002
   0.15492674  0.07042125  0.00000000       0.002
   0.16901099  0.07042125  0.00000000       0.002
   0.08450549  0.08450549  0.00000000       0.001
   0.09858974  0.08450549  0.00000000       0.002
   0.11267399  0.08450549  0.00000000       0.002
   0.12675824  0.08450549  0.00000000       0.002
   0.14084249  0.08450549  0.00000000       0.002
   0.15492674  0.08450549  0.00000000       0.002
   0.16901099  0.08450549  0.00000000       0.002
   0.09858974  0.09858974  0.00000000       0.001
   0.11267399  0.09858974  0.00000000       0.002
   0.12675824  0.09858974  0.00000000       0.002
   0.14084249  0.09858974  0.00000000       0.002
   0.15492674  0.09858974  0.00000000       0.002
   0.16901099  0.09858974  0.00000000       0.002
   0.11267399  0.11267399  0.00000000       0.001
   0.12675824  0.11267399  0.00000000       0.002
   0.14084249  0.11267399  0.00000000       0.002
   0.15492674  0.11267399  0.00000000       0.002
   0.16901099  0.11267399  0.00000000       0.002
   0.12675824  0.12675824  0.00000000       0.001
   0.14084249  0.12675824  0.00000000       0.002
   0.15492674  0.12675824  0.00000000       0.002
   0.16901099  0.12675824  0.00000000       0.002
   0.14084249  0.14084249  0.00000000       0.001
   0.15492674  0.14084249  0.00000000       0.002
   0.16901099  0.14084249  0.00000000       0.002
   0.15492674  0.15492674  0.00000000       0.001
   0.16901099  0.15492674  0.00000000       0.002
   0.16901099  0.16901099  0.00000000       0.001
   0.01408425  0.01408425  0.01408425       0.001
   0.02816850  0.01408425  0.01408425       0.002
   0.04225275  0.01408425  0.01408425       0.002
   0.05633700  0.01408425  0.01408425       0.002
   0.07042125  0.01408425  0.01408425       0.002
   0.08450549  0.01408425  0.01408425       0.002
   0.09858974  0.01408425  0.01408425       0.002
   0.11267399  0.01408425  0.01408425       0.002
   0.12675824  0.01408425  0.01408425       0.002
   0.14084249  0.01408425  0.01408425       0.002
   0.15492674  0.01408425  0.01408425       0.002
   0.16901099  0.01408425  0.01408425       0.002
   0.02816850  0.02816850  0.01408425       0.002
   0.04225275  0.02816850  0.01408425       0.003
   0.05633700  0.02816850  0.01408425       0.003
   0.07042125  0.02816850  0.01408425       0.003
   0.08450549  0.02816850  0.01408425       0.003
   0.09858974  0.02816850  0.01408425       0.003
   0.11267399  0.02816850  0.01408425       0.003
   0.12675824  0.02816850  0.01408425       0.003
   0.14084249  0.02816850  0.01408425       0.003
   0.15492674  0.02816850  0.01408425       0.003
   0.16901099  0.02816850  0.01408425       0.003
   0.04225275  0.04225275  0.01408425       0.002
   0.05633700  0.04225275  0.01408425       0.003
   0.07042125  0.04225275  0.01408425       0.003
   0.08450549  0.04225275  0.01408425       0.003
   0.09858974  0.04225275  0.01408425       0.003
   0.11267399  0.04225275  0.01408425       0.003
   0.12675824  0.04225275  0.01408425       0.003
   0.14084249  0.04225275  0.01408425       0.003
   0.15492674  0.04225275  0.01408425       0.003
   0.16901099  0.04225275  0.01408425       0.003
   0.05633700  0.05633700  0.01408425       0.002
   0.07042125  0.05633700  0.01408425       0.003
   0.08450549  0.05633700  0.01408425       0.003
   0.09858974  0.05633700  0.01408425       0.003
   0.11267399  0.05633700  0.01408425       0.003
   0.12675824  0.05633700  0.01408425       0.003
   0.14084249  0.05633700  0.01408425       0.003
   0.15492674  0.05633700  0.01408425       0.003
   0.16901099  0.05633700  0.01408425       0.003
   0.07042125  0.07042125  0.01408425       0.002
   0.08450549  0.07042125  0.01408425       0.003
   0.09858974  0.07042125  0.01408425       0.003
   0.11267399  0.07042125  0.01408425       0.003
   0.12675824  0.07042125  0.01408425       0.003
   0.14084249  0.07042125  0.01408425       0.003
   0.15492674  0.07042125  0.01408425       0.003
   0.16901099  0.07042125  0.01408425       0.003
   0.08450549  0.08450549  0.01408425       0.002
   0.09858974  0.08450549  0.01408425       0.003
   0.11267399  0.08450549  0.01408425       0.003
   0.12675824  0.08450549  0.01408425       0.003
   0.14084249  0.08450549  0.01408425       0.003
   0.15492674  0.08450549  0.01408425       0.003
   0.16901099  0.08450549  0.01408425       0.003
   0.09858974  0.09858974  0.01408425       0.002
   0.11267399  0.09858974  0.01408425       0.003
   0.12675824  0.09858974  0.01408425       0.003
   0.14084249  0.09858974  0.01408425       0.003
   0.15492674  0.09858974  0.01408425       0.003
   0.16901099  0.09858974  0.01408425       0.003
   0.11267399  0.11267399  0.01408425       0.002
   0.12675824  0.11267399  0.01408425       0.003
   0.14084249  0.11267399  0.01408425       0.003
   0.15492674  0.11267399  0.01408425       0.003
   0.16901099  0.11267399  0.01408425       0.003
   0.12675824  0.12675824  0.01408425       0.002
   0.14084249  0.12675824  0.01408425       0.003
   0.15492674  0.12675824  0.01408425       0.003
   0.16901099  0.12675824  0.01408425       0.003
   0.14084249  0.14084249  0.01408425       0.002
   0.15492674  0.14084249  0.01408425       0.003
   0.16901099  0.14084249  0.01408425       0.003
   0.15492674  0.15492674  0.01408425       0.002
   0.16901099  0.15492674  0.01408425       0.003
   0.16901099  0.16901099  0.01408425       0.002
   0.02816850  0.02816850  0.02816850       0.001
   0.04225275  0.02816850  0.02816850       0.002
   0.05633700  0.02816850  0.02816850       0.002
   0.07042125  0.02816850  0.02816850       0.002
   0.08450549  0.02816850  0.02816850       0.002
   0.09858974  0.02816850  0.02816850       0.002
   0.11267399  0.02816850  0.02816850       0.002
   0.12675824  0.02816850  0.02816850       0.002
   0.14084249  0.02816850  0.02816850       0.002
   0.15492674  0.02816850  0.02816850       0.002
   0.16901099  0.02816850  0.02816850       0.002
   0.04225275  0.04225275  0.02816850       0.002
   0.05633700  0.04225275  0.02816850       0.003
   0.07042125  0.04225275  0.02816850       0.003
   0.08450549  0.04225275  0.02816850       0.003
   0.09858974  0.04225275  0.02816850       0.003
   0.11267399  0.04225275  0.02816850       0.003
   0.12675824  0.04225275  0.02816850       0.003
   0.14084249  0.04225275  0.02816850       0.003
   0.15492674  0.04225275  0.02816850       0.003
   0.16901099  0.04225275  0.02816850       0.003
   0.05633700  0.05633700  0.02816850       0.002
   0.07042125  0.05633700  0.02816850       0.003
   0.08450549  0.05633700  0.02816850       0.003
   0.09858974  0.05633700  0.02816850       0.003
   0.11267399  0.05633700  0.02816850       0.003
   0.12675824  0.05633700  0.02816850       0.003
   0.14084249  0.05633700  0.02816850       0.003
   0.15492674  0.05633700  0.02816850       0.003
   0.16901099  0.05633700  0.02816850       0.003
   0.07042125  0.07042125  0.02816850       0.002
   0.08450549  0.07042125  0.02816850       0.003
   0.09858974  0.07042125  0.02816850       0.003
   0.11267399  0.07042125  0.02816850       0.003
   0.12675824  0.07042125  0.02816850       0.003
   0.14084249  0.07042125  0.02816850       0.003
   0.15492674  0.07042125  0.02816850       0.003
   0.16901099  0.07042125  0.02816850       0.003
   0.08450549  0.08450549  0.02816850       0.002
   0.09858974  0.08450549  0.02816850       0.003
   0.11267399  0.08450549  0.02816850       0.003
   0.12675824  0.08450549  0.02816850       0.003
   0.14084249  0.08450549  0.02816850       0.003
   0.15492674  0.08450549  0.02816850       0.003
   0.16901099  0.08450549  0.02816850       0.003
   0.09858974  0.09858974  0.02816850       0.002
   0.11267399  0.09858974  0.02816850       0.003
   0.12675824  0.09858974  0.02816850       0.003
   0.14084249  0.09858974  0.02816850       0.003
   0.15492674  0.09858974  0.02816850       0.003
   0.16901099  0.09858974  0.02816850       0.003
   0.11267399  0.11267399  0.02816850       0.002
   0.12675824  0.11267399  0.02816850       0.003
   0.14084249  0.11267399  0.02816850       0.003
   0.15492674  0.11267399  0.02816850       0.003
   0.16901099  0.11267399  0.02816850       0.003
   0.12675824  0.12675824  0.02816850       0.002
   0.14084249  0.12675824  0.02816850       0.003
   0.15492674  0.12675824  0.02816850       0.003
   0.16901099  0.12675824  0.02816850       0.003
   0.14084249  0.14084249  0.02816850       0.002
   0.15492674  0.14084249  0.02816850       0.003
   0.16901099  0.14084249  0.02816850       0.003
   0.15492674  0.15492674  0.02816850       0.002
   0.16901099  0.15492674  0.02816850       0.003
   0.16901099  0.16901099  0.02816850       0.002
   0.04225275  0.04225275  0.04225275       0.001
   0.05633700  0.04225275  0.04225275       0.002
   0.07042125  0.04225275  0.04225275       0.002
   0.08450549  0.04225275  0.04225275       0.002
   0.09858974  0.04225275  0.04225275       0.002
   0.11267399  0.04225275  0.04225275       0.002
   0.12675824  0.04225275  0.04225275       0.002
   0.14084249  0.04225275  0.04225275       0.002
   0.15492674  0.04225275  0.04225275       0.002
   0.16901099  0.04225275  0.04225275       0.002
   0.05633700  0.05633700  0.04225275       0.002
   0.07042125  0.05633700  0.04225275       0.003
   0.08450549  0.05633700  0.04225275       0.003
   0.09858974  0.05633700  0.04225275       0.003
   0.11267399  0.05633700  0.04225275       0.003
   0.12675824  0.05633700  0.04225275       0.003
   0.14084249  0.05633700  0.04225275       0.003
   0.15492674  0.05633700  0.04225275       0.003
   0.16901099  0.05633700  0.04225275       0.003
   0.07042125  0.07042125  0.04225275       0.002
   0.08450549  0.07042125  0.04225275       0.003
   0.09858974  0.07042125  0.04225275       0.003
   0.11267399  0.07042125  0.04225275       0.003
   0.12675824  0.07042125  0.04225275       0.003
   0.14084249  0.07042125  0.04225275       0.003
   0.15492674  0.07042125  0.04225275       0.003
   0.16901099  0.07042125  0.04225275       0.003
   0.08450549  0.08450549  0.04225275       0.002
   0.09858974  0.08450549  0.04225275       0.003
   0.11267399  0.08450549  0.04225275       0.003
   0.12675824  0.08450549  0.04225275       0.003
   0.14084249  0.08450549  0.04225275       0.003
   0.15492674  0.08450549  0.04225275       0.003
   0.16901099  0.08450549  0.04225275       0.003
   0.09858974  0.09858974  0.04225275       0.002
   0.11267399  0.09858974  0.04225275       0.003
   0.12675824  0.09858974  0.04225275       0.003
   0.14084249  0.09858974  0.04225275       0.003
   0.15492674  0.09858974  0.04225275       0.003
   0.16901099  0.09858974  0.04225275       0.003
   0.11267399  0.11267399  0.04225275       0.002
   0.12675824  0.11267399  0.04225275       0.003
   0.14084249  0.11267399  0.04225275       0.003
   0.15492674  0.11267399  0.04225275       0.003
   0.16901099  0.11267399  0.04225275       0.003
   0.12675824  0.12675824  0.04225275       0.002
   0.14084249  0.12675824  0.04225275       0.003
   0.15492674  0.12675824  0.04225275       0.003
   0.16901099  0.12675824  0.04225275       0.003
   0.14084249  0.14084249  0.04225275       0.002
   0.15492674  0.14084249  0.04225275       0.003
   0.16901099  0.14084249  0.04225275       0.003
   0.15492674  0.15492674  0.04225275       0.002
   0.16901099  0.15492674  0.04225275       0.003
   0.16901099  0.16901099  0.04225275       0.002
   0.05633700  0.05633700  0.05633700       0.001
   0.07042125  0.05633700  0.05633700       0.002
   0.08450549  0.05633700  0.05633700       0.002
   0.09858974  0.05633700  0.05633700       0.002
   0.11267399  0.05633700  0.05633700       0.002
   0.12675824  0.05633700  0.05633700       0.002
[...]
     19      18.4567      0.00000
     20      20.1675      0.00000
     21      20.1699      0.00000
     22      21.1825      0.00000
     23      22.1447      0.00000
     24      23.5287      0.00000

 k-point   450 :       0.4800    0.4400    0.4000
  band No.  band energies     occupation 
      1     -41.9445      1.00000
      2     -41.9350      1.00000
      3     -41.8696      1.00000
      4     -41.8460      1.00000
      5     -41.7889      1.00000
      6     -41.7782      1.00000
      7       7.6117      1.00000
      8       7.6608      1.00000
      9       7.8248      1.00000
     10       7.8702      1.00000
     11       8.0489      1.00000
     12       8.0925      1.00000
     13      11.5142      0.00000
     14      11.5173      0.00000
     15      11.5546      0.00000
     16      11.5569      0.00000
     17      16.7154      0.00000
     18      17.1782      0.00000
     19      18.9148      0.00000
     20      19.5268      0.00000
     21      20.4757      0.00000
     22      20.8899      0.00000
     23      22.3381      0.00000
     24      22.8707      0.00000

 k-point   451 :       0.4800    0.4800    0.4000
  band No.  band energies     occupation 
      1     -41.9354      1.00000
      2     -41.9314      1.00000
      3     -41.8619      1.00000
      4     -41.8519      1.00000
      5     -41.7951      1.00000
      6     -41.7902      1.00000
      7       7.6510      1.00000
      8       7.6764      1.00000
      9       7.7943      1.00000
     10       7.8183      1.00000
     11       8.0966      1.00000
     12       8.1115      1.00000
     13      11.5234      0.00000
     14      11.5245      0.00000
     15      11.5650      0.00000
     16      11.5658      0.00000
     17      17.1301      0.00000
     18      17.3519      0.00000
     19      18.7827      0.00000
     20      19.0514      0.00000
     21      20.8118      0.00000
     22      21.0660      0.00000
     23      21.9762      0.00000
     24      22.2668      0.00000

 k-point   452 :       0.4400    0.4400    0.4400
  band No.  band energies     occupation 
      1     -41.9397      1.00000
      2     -41.9019      1.00000
      3     -41.9019      1.00000
      4     -41.8200      1.00000
      5     -41.8200      1.00000
      6     -41.7821      1.00000
      7       7.6333      1.00000
      8       7.8179      1.00000
      9       7.8179      1.00000
     10       7.8921      1.00000
     11       7.9838      1.00000
     12       7.9838      1.00000
     13      11.5409      0.00000
     14      11.5409      0.00000
     15      11.5459      0.00000
     16      11.5459      0.00000
     17      16.7458      0.00000
     18      18.1930      0.00000
     19      18.1930      0.00000
     20      20.0106      0.00000
     21      20.4097      0.00000
     22      20.4097      0.00000
     23      21.6973      0.00000
     24      22.8096      0.00000

 k-point   453 :       0.4800    0.4400    0.4400
  band No.  band energies     occupation 
      1     -41.9259      1.00000
      2     -41.9135      1.00000
      3     -41.8745      1.00000
      4     -41.8471      1.00000
      5     -41.8106      1.00000
      6     -41.7977      1.00000
      7       7.6872      1.00000
      8       7.7517      1.00000
      9       7.8491      1.00000
     10       7.9038      1.00000
     11       7.9694      1.00000
     12       8.0038      1.00000
     13      11.5434      0.00000
     14      11.5452      0.00000
     15      11.5593      0.00000
     16      11.5609      0.00000
     17      17.2545      0.00000
     18      17.7549      0.00000
     19      18.9131      0.00000
     20      19.6526      0.00000
     21      20.1380      0.00000
     22      20.3678      0.00000
     23      21.7349      0.00000
     24      22.1848      0.00000

 k-point   454 :       0.4800    0.4800    0.4400
  band No.  band energies     occupation 
      1     -41.9113      1.00000
      2     -41.9042      1.00000
      3     -41.8686      1.00000
      4     -41.8532      1.00000
      5     -41.8216      1.00000
      6     -41.8139      1.00000
      7       7.7444      1.00000
      8       7.8023      1.00000
      9       7.8090      1.00000
     10       7.8636      1.00000
     11       7.9838      1.00000
     12       7.9955      1.00000
     13      11.5534      0.00000
     14      11.5540      0.00000
     15      11.5678      0.00000
     16      11.5684      0.00000
     17      17.7554      0.00000
     18      18.0580      0.00000
     19      18.8875      0.00000
     20      19.2949      0.00000
     21      20.1770      0.00000
     22      20.2902      0.00000
     23      21.4309      0.00000
     24      21.6425      0.00000

 k-point   455 :       0.4800    0.4800    0.4800
  band No.  band energies     occupation 
      1     -41.8903      1.00000
      2     -41.8766      1.00000
      3     -41.8766      1.00000
      4     -41.8489      1.00000
      5     -41.8489      1.00000
      6     -41.8352      1.00000
      7       7.8011      1.00000
      8       7.8459      1.00000
      9       7.8459      1.00000
     10       7.9074      1.00000
     11       7.9074      1.00000
     12       7.9213      1.00000
     13      11.5694      0.00000
     14      11.5694      0.00000
     15      11.5696      0.00000
     16      11.5696      0.00000
     17      18.3437      0.00000
     18      18.7842      0.00000
     19      18.7842      0.00000
     20      19.5289      0.00000
     21      19.5289      0.00000
     22      19.7493      0.00000
     23      21.1378      0.00000
     24      21.2194      0.00000


--------------------------------------------------------------------------------------------------------


 soft charge-density along one line, spin component           1
         0         1         2         3         4         5         6         7         8         9
 total charge-density along one line
 
 soft charge-density along one line, spin component           2
         0         1         2         3         4         5         6         7         8         9
 total charge-density along one line
 
 pseudopotential strength for first ion, spin component:           1
-44.851   0.000   0.000   7.567  -0.000  -0.000   0.000  -0.000
  0.000 -44.851  -0.000  -0.000   7.567   0.000  -0.000  -0.000
  0.000  -0.000 -44.851  -0.000   0.000   7.567  -0.000  -0.000
  7.567  -0.000  -0.000   5.639  -0.000   0.000  -0.000   0.000
 -0.000   7.567   0.000  -0.000   5.639  -0.000   0.000   0.000
 -0.000   0.000   7.567   0.000  -0.000   5.639   0.000   0.000
  0.000  -0.000  -0.000  -0.000   0.000   0.000  -1.976   0.000
 -0.000  -0.000  -0.000   0.000   0.000   0.000   0.000  -1.976
  0.000  -0.000  -0.000  -0.000   0.000   0.000  -0.000   0.000
 -0.000   0.000  -0.000   0.000  -0.000   0.000   0.000   0.000
  0.000  -0.000   0.000  -0.000   0.000  -0.000   0.000  -0.000
  0.000  -0.000  -0.000  -0.000   0.000   0.000  -2.491   0.000
 -0.000  -0.000  -0.000   0.000   0.000   0.000   0.000  -2.491
  0.000  -0.000   0.000  -0.000   0.000   0.000  -0.000   0.000
 -0.000   0.000  -0.000   0.000  -0.000   0.000   0.000   0.000
  0.000  -0.000  -0.000  -0.000   0.000  -0.000   0.000  -0.000
  0.000   0.000  -0.000   0.000   0.000  -0.000  -0.000  -0.000
  0.000   0.000  -0.000   0.000   0.000  -0.000  -0.000  -0.000
 pseudopotential strength for first ion, spin component:           2
-42.873   0.000   0.000   6.731  -0.000  -0.000   0.000  -0.000
  0.000 -42.873  -0.000  -0.000   6.731   0.000   0.000  -0.000
  0.000  -0.000 -42.873  -0.000   0.000   6.731  -0.000   0.000
  6.731  -0.000  -0.000   5.868  -0.000  -0.000  -0.000   0.000
 -0.000   6.731   0.000  -0.000   5.868   0.000  -0.000   0.000
 -0.000   0.000   6.731  -0.000   0.000   5.868   0.000  -0.000
  0.000   0.000  -0.000  -0.000  -0.000   0.000  -0.443   0.000
 -0.000  -0.000   0.000   0.000   0.000  -0.000   0.000  -0.443
  0.000  -0.000  -0.000  -0.000   0.000   0.000  -0.000   0.000
  0.000   0.000  -0.000  -0.000  -0.000   0.000   0.000   0.000
  0.000  -0.000   0.000  -0.000   0.000  -0.000   0.000   0.000
  0.000   0.000  -0.000  -0.000  -0.000   0.000  -0.984   0.000
 -0.000  -0.000   0.000   0.000   0.000  -0.000   0.000  -0.984
  0.000  -0.000  -0.000  -0.000   0.000   0.000  -0.000   0.000
  0.000   0.000  -0.000  -0.000  -0.000   0.000   0.000   0.000
  0.000  -0.000  -0.000  -0.000   0.000  -0.000   0.000   0.000
  0.000   0.000  -0.000   0.000   0.000  -0.000  -0.000  -0.000
  0.000   0.000  -0.000   0.000   0.000  -0.000  -0.000  -0.000
 total augmentation occupancy for first ion, spin component:           1
  1.992   0.000   0.000  -0.026  -0.000  -0.000   0.000   0.000   0.000   0.000  -0.000   0.000   0.000   0.000   0.000   0.000
  0.000   1.992   0.000  -0.000  -0.026   0.000   0.000   0.000   0.000   0.000   0.000   0.000   0.000   0.000   0.000  -0.000
  0.000   0.000   1.992   0.000  -0.000  -0.026   0.000   0.000   0.000   0.000  -0.000   0.000   0.000   0.000   0.000  -0.000
 -0.026  -0.000  -0.000   0.201  -0.000  -0.000   0.000   0.000   0.000   0.000   0.000   0.000   0.000   0.000   0.000  -0.000
  0.000  -0.026   0.000  -0.000   0.201   0.000   0.000   0.000   0.000   0.000   0.000   0.000   0.000   0.000   0.000  -0.000
  0.000  -0.000  -0.026  -0.000   0.000   0.201   0.000   0.000  -0.000   0.000   0.000  -0.000   0.000   0.000   0.000  -0.000
  0.000   0.000   0.000   0.000  -0.000   0.000   2.191  -0.000   0.000  -0.000   0.000  -1.239  -0.000  -0.000   0.000  -0.000
  0.000   0.000   0.000  -0.000   0.000   0.000   0.000   2.191   0.000   0.000   0.000   0.000  -1.239  -0.000  -0.000  -0.000
  0.000   0.000   0.000  -0.000   0.000   0.000   0.000  -0.000   3.390   0.000   0.000   0.000   0.000  -2.174   0.000  -0.000
  0.000   0.000   0.000   0.000   0.000   0.000   0.000   0.000   0.000   2.191   0.000  -0.000   0.000   0.000  -1.239   0.000
 -0.000  -0.000  -0.000  -0.000   0.000  -0.000   0.000   0.000   0.000   0.000   3.390   0.000   0.000  -0.000  -0.000  -2.174
  0.000   0.000   0.000  -0.000   0.000   0.000  -1.239   0.000   0.000   0.000   0.000   1.665   0.000  -0.000  -0.000  -0.000
  0.000   0.000   0.000   0.000  -0.000   0.000  -0.000  -1.239   0.000  -0.000   0.000   0.000   1.665  -0.000   0.000  -0.000
  0.000   0.000  -0.000   0.000   0.000   0.000  -0.000  -0.000  -2.174   0.000   0.000   0.000  -0.000   2.220   0.000   0.000
  0.000   0.000   0.000   0.000   0.000  -0.000   0.000  -0.000   0.000  -1.239  -0.000  -0.000  -0.000  -0.000   1.665   0.000
  0.000   0.000  -0.000   0.000  -0.000   0.000  -0.000  -0.000   0.000  -0.000  -2.174   0.000   0.000   0.000   0.000   2.220
  0.000  -0.000   0.000   0.000   0.000   0.000   0.000  -0.000  -0.000  -0.000  -0.000   0.000  -0.000   0.000   0.000   0.000
  0.000  -0.000   0.000   0.000   0.000   0.000   0.000  -0.000  -0.000   0.000  -0.000  -0.000  -0.000  -0.000   0.000   0.000
 total augmentation occupancy for first ion, spin component:           2
 -0.002   0.000   0.000  -0.009   0.000   0.000   0.000   0.000   0.000   0.000  -0.000   0.000   0.000   0.000  -0.000   0.000
  0.000  -0.002   0.000  -0.000  -0.009   0.000   0.000   0.000   0.000   0.000   0.000   0.000   0.000  -0.000   0.000  -0.000
  0.000   0.000  -0.002   0.000  -0.000  -0.009   0.000   0.000  -0.000   0.000  -0.000   0.000  -0.000  -0.000   0.000   0.000
 -0.009   0.000   0.000  -0.019  -0.000  -0.000  -0.000   0.000  -0.000   0.000   0.000   0.000   0.000  -0.000  -0.000   0.000
  0.000  -0.009  -0.000   0.000  -0.019   0.000   0.000   0.000   0.000  -0.000   0.000  -0.000   0.000   0.000   0.000  -0.000
  0.000  -0.000  -0.009  -0.000  -0.000  -0.019  -0.000   0.000   0.000  -0.000   0.000  -0.000  -0.000  -0.000   0.000   0.000
  0.000   0.000   0.000  -0.000   0.000   0.000   1.780   0.000   0.000   0.000  -0.000  -0.673  -0.000  -0.000  -0.000  -0.000
  0.000   0.000   0.000   0.000  -0.000   0.000   0.000   1.780   0.000  -0.000   0.000   0.000  -0.673   0.000   0.000   0.000
  0.000  -0.000   0.000   0.000   0.000  -0.000   0.000   0.000   2.801  -0.000   0.000  -0.000   0.000  -1.149   0.000  -0.000
  0.000   0.000   0.000   0.000  -0.000  -0.000   0.000  -0.000   0.000   1.780  -0.000   0.000   0.000   0.000  -0.673   0.000
 -0.000   0.000   0.000   0.000   0.000   0.000  -0.000   0.000   0.000  -0.000   2.801  -0.000  -0.000   0.000   0.000  -1.149
  0.000   0.000   0.000  -0.000   0.000   0.000  -0.673   0.000  -0.000   0.000   0.000   0.001   0.000   0.000   0.000   0.000
  0.000   0.000  -0.000   0.000  -0.000   0.000  -0.000  -0.673  -0.000  -0.000  -0.000   0.000   0.001  -0.000   0.000   0.000
 -0.000   0.000  -0.000   0.000   0.000  -0.000   0.000   0.000  -1.149   0.000   0.000   0.000   0.000   0.230  -0.000  -0.000
 -0.000   0.000   0.000   0.000   0.000  -0.000   0.000   0.000   0.000  -0.673   0.000  -0.000  -0.000  -0.000   0.001   0.000
  0.000  -0.000   0.000  -0.000  -0.000   0.000  -0.000   0.000   0.000   0.000  -1.149  -0.000   0.000  -0.000  -0.000   0.230
  0.000  -0.000   0.000   0.000   0.000   0.000   0.000  -0.000   0.000  -0.000  -0.000   0.000   0.000  -0.000   0.000   0.000
  0.000   0.000   0.000   0.000   0.000   0.000   0.000   0.000  -0.000  -0.000   0.000  -0.000  -0.000   0.000   0.000   0.000


------------------------ aborting loop because EDIFF is reached ----------------------------------------


 


 total charge     
 
# of ion       s       p       d       tot
------------------------------------------
    1        0.385   6.376   6.077  12.838
    2        0.385   6.376   6.077  12.838
--------------------------------------------------
tot          0.770  12.753  12.154  25.677
 


 magnetization (x)
 
# of ion       s       p       d       tot
------------------------------------------
    1       -0.008  -0.039   2.299   2.252
    2       -0.008  -0.039   2.299   2.252
--------------------------------------------------
tot         -0.016  -0.078   4.598   4.504
 
    CHARGE:  cpu time    0.1727: real time    0.1732
    FORLOC:  cpu time    0.0002: real time    0.0002
    FORNL :  cpu time    1.3421: real time    1.3457
    STRESS:  cpu time    4.0170: real time    4.0272
    FORCOR:  cpu time    0.0105: real time    0.0105
    FORHAR:  cpu time    0.0012: real time    0.0012
    MIXING:  cpu time    0.0005: real time    0.0006
    OFIELD:  cpu time    0.0000: real time    0.0000

  FORCE on cell =-STRESS in cart. coord.  units (eV):
  Direction    XX          YY          ZZ          XY          YZ          ZX
  --------------------------------------------------------------------------------------
  Alpha Z   218.87049   218.87049   218.87049
  Ewald   -1205.52018 -1205.52018 -1205.52018    -0.00000    -0.00000    -0.00000
  Hartree   363.40179   363.40179   363.40179    -0.00000    -0.00000    -0.00000
  E(xc)    -179.80091  -179.80091  -179.80091     0.00000    -0.00000     0.00000
  Local     289.66513   289.66513   289.66513    -0.00000     0.00000    -0.00000
  n-local   -60.33132   -54.15146   -50.47500     2.78256    -1.46320     0.57605
  augment   285.35091   285.35091   285.35091     0.00000     0.00000     0.00000
  Kinetic   283.92261   282.59141   281.94945     3.03734    -0.75237     0.02077
  Fock        0.00000     0.00000     0.00000     0.00000     0.00000     0.00000
  -------------------------------------------------------------------------------------
  Total      -0.19753    -0.19753    -0.19753     0.00000     0.00000    -0.00000
  in kB     -13.81536   -13.81536   -13.81536     0.00000     0.00000    -0.00000
  external pressure =      -13.82 kB  Pullay stress =        0.00 kB


 VOLUME and BASIS-vectors are now :
 -----------------------------------------------------------------------------
  energy-cutoff  :      920.00
  volume of cell :       22.91
      direct lattice vectors                 reciprocal lattice vectors
     2.840052000  0.000000000  0.000000000     0.352106229  0.000000000  0.000000000
     0.000000000  2.840052000  0.000000000     0.000000000  0.352106229  0.000000000
     0.000000000  0.000000000  2.840052000     0.000000000  0.000000000  0.352106229

  length of vectors
     2.840052000  2.840052000  2.840052000     0.352106229  0.352106229  0.352106229


 FORCES acting on ions
    electron-ion (+dipol)            ewald-force                    non-local-force                 convergence-correction
 -----------------------------------------------------------------------------------------------
   -.282E-13 -.203E-13 -.506E-13   -.529E-15 -.103E-14 -.897E-14   0.000E+00 0.000E+00 -.808E-26   0.124E-13 0.629E-14 -.171E-14
   0.805E-12 0.747E-11 0.864E-11   0.472E-14 0.447E-14 0.926E-14   0.000E+00 0.000E+00 0.000E+00   0.467E-13 -.101E-13 -.938E-13
 -----------------------------------------------------------------------------------------------
   0.777E-12 0.745E-11 0.859E-11   0.419E-14 0.343E-14 0.284E-15   0.000E+00 0.000E+00 -.808E-26   0.591E-13 -.383E-14 -.955E-13
 
 
 POSITION                                       TOTAL-FORCE (eV/Angst)
 -----------------------------------------------------------------------------------
      0.00000      0.00000      0.00000         0.000000      0.000000      0.000000
      1.42003      1.42003      1.42003        -0.000000     -0.000000     -0.000000
 -----------------------------------------------------------------------------------
    total drift:                                0.000000      0.000000      0.000000


--------------------------------------------------------------------------------------------------------



  FREE ENERGIE OF THE ION-ELECTRON SYSTEM (eV)
  ---------------------------------------------------
  free  energy   TOTEN  =       -16.51560293 eV

  energy  without entropy=      -16.51560293  energy(sigma->0) =      -16.51560293
 


--------------------------------------------------------------------------------------------------------


    POTLOK:  cpu time    0.0163: real time    0.0163


--------------------------------------------------------------------------------------------------------


     LOOP+:  cpu time  120.8814: real time  121.2054
    4ORBIT:  cpu time    0.0000: real time    0.0000
 


 total charge     
 
# of ion       s       p       d       tot
------------------------------------------
    1        0.385   6.376   6.077  12.838
    2        0.385   6.376   6.077  12.838
--------------------------------------------------
tot          0.770  12.753  12.154  25.677
 


 magnetization (x)
 
# of ion       s       p       d       tot
------------------------------------------
    1       -0.008  -0.039   2.299   2.252
    2       -0.008  -0.039   2.299   2.252
--------------------------------------------------
tot         -0.016  -0.078   4.598   4.504
 
 BZINTS: Fermi energy:  9.637887; 28.000000 electrons
         Band energy:-399.028892;  BLOECHL correction: -0.009009

 total amount of memory used by VASP MPI-rank0    55308. kBytes
=======================================================================

   base      :      30000. kBytes
   nonlr-proj:        945. kBytes
   fftplans  :        478. kBytes
   grid      :       1141. kBytes
   one-center:         31. kBytes
   wavefun   :      22713. kBytes
 
  
  
 General timing and accounting informations for this job:
 ========================================================
  
                  Total CPU time used (sec):      127.037
                            User time (sec):      125.776
                          System time (sec):        1.262
                         Elapsed time (sec):      128.299
  
                   Maximum memory used (kb):      104100.
                   Average memory used (kb):           0.
  
                          Minor page faults:        47755
                          Major page faults:            0
                 Voluntary context switches:         1565
