       N       E                     dE             d eps       ncg     rms          rms(c)
DAV:   1     0.894316553315E+02    0.89432E+02   -0.90713E+03 13600   0.188E+03
DAV:   2    -0.137855506578E+02   -0.10322E+03   -0.96461E+02 13488   0.286E+02
DAV:   3    -0.161935985078E+02   -0.24080E+01   -0.23322E+01 15174   0.635E+01
DAV:   4    -0.162268607641E+02   -0.33262E-01   -0.33247E-01 19102   0.583E+00
DAV:   5    -0.162272327024E+02   -0.37194E-03   -0.37160E-03 15788   0.566E-01    0.144E+01
DAV:   6    -0.142574667839E+02    0.19698E+01   -0.16521E+01 14046   0.841E+01    0.786E+00
DAV:   7    -0.139185798143E+02    0.33889E+00   -0.22873E+00 14568   0.300E+01    0.478E+00
DAV:   8    -0.140776934353E+02   -0.15911E+00   -0.14366E-01 18104   0.628E+00    0.222E+00
DAV:   9    -0.140282408473E+02    0.49453E-01   -0.45719E-02 18938   0.334E+00    0.258E+00
DAV:  10    -0.140241941362E+02    0.40467E-02   -0.65503E-04 16040   0.288E-01    0.269E+00
DAV:  11    -0.140694192622E+02   -0.45225E-01   -0.27733E-02 16464   0.279E+00    0.620E-01
DAV:  12    -0.140709568690E+02   -0.15376E-02   -0.10684E-03 19926   0.435E-01    0.283E-01
DAV:  13    -0.140711889067E+02   -0.23204E-03   -0.50262E-04 17786   0.357E-01    0.228E-02
DAV:  14    -0.140711810088E+02    0.78979E-05   -0.13494E-05 14274   0.396E-02    0.825E-03
DAV:  15    -0.140711820570E+02   -0.10482E-05   -0.14411E-06 15618   0.147E-02    0.349E-03
DAV:  16    -0.140711790921E+02    0.29649E-05   -0.14576E-07 11712   0.515E-03    0.941E-04
DAV:  17    -0.140711773039E+02    0.17882E-05   -0.31139E-08  7272   0.232E-03    0.798E-04
DAV:  18    -0.140711779608E+02   -0.65690E-06   -0.93250E-09  7032   0.163E-03    0.288E-04
DAV:  19    -0.140711783035E+02   -0.34268E-06   -0.32681E-09  7020   0.559E-04    0.760E-05
DAV:  20    -0.140711782963E+02    0.71711E-08   -0.98016E-10  6948   0.369E-04
   1 F= -.14071178E+02 E0= -.14071178E+02  d E =0.000000E+00  mag=     3.1752
