=========================================
SLURM_JOB_ID = 51706456
SLURM_JOB_NODELIST = lnode14
SLURM_GPUS = 
SLURM_CPUS_ON_NODE = 24
SLURM_JOB_PARTITION = lenovo
SLURM_TASK_PID = 973632
CUDA_VISIBLE_DEVICES = 
==========================================
 running on   24 total cores
 distrk:  each k-point on   24 cores,    1 groups
 distr:  one band on    4 cores,    6 groups
 using from now: INCAR     
 vasp.5.4.4.18Apr17-6-g9f103f2a35 (build Apr 28 2018 00:24:27) complex          
  
 POSCAR found type information on POSCAR  Fe O 
 POSCAR found :  2 types and      30 ions
 scaLAPACK will be used
 LDA part: xc-table for Pade appr. of Perdew
 POSCAR, INCAR and KPOINTS ok, starting setup
 FFT: planning ...
 WAVECAR not read
 entering main loop
       N       E                     dE             d eps       ncg     rms          rms(c)
DAV:   1     0.481774352740E+04    0.48177E+04   -0.16854E+05 11520   0.234E+03
DAV:   2     0.579080064927E+03   -0.42387E+04   -0.38735E+04 11424   0.642E+02
DAV:   3    -0.234474992665E+03   -0.81356E+03   -0.70891E+03 11856   0.266E+02
DAV:   4    -0.293799268871E+03   -0.59324E+02   -0.58613E+02 12924   0.699E+01
DAV:   5    -0.294485650207E+03   -0.68638E+00   -0.68425E+00 12792   0.845E+00    0.809E+01
DAV:   6    -0.235286845445E+03    0.59199E+02   -0.25314E+02 14820   0.810E+01    0.912E+01
DAV:   7    -0.212040119386E+03    0.23247E+02   -0.11413E+02 12264   0.635E+01    0.437E+01
DAV:   8    -0.218295187706E+03   -0.62551E+01   -0.21414E+01 12072   0.172E+01    0.265E+01
DAV:   9    -0.222483852438E+03   -0.41887E+01   -0.82005E+00 12588   0.169E+01    0.271E+01
DAV:  10    -0.222153543212E+03    0.33031E+00   -0.24523E+00 12516   0.688E+00    0.186E+01
DAV:  11    -0.221590477259E+03    0.56307E+00   -0.22707E-01 14292   0.281E+00    0.122E+01
DAV:  12    -0.221388317342E+03    0.20216E+00   -0.19618E-01 15264   0.240E+00    0.843E+00
DAV:  13    -0.221387161758E+03    0.11556E-02   -0.11194E-01 13920   0.224E+00    0.468E+00
DAV:  14    -0.221431878531E+03   -0.44717E-01   -0.15338E-01 15000   0.200E+00    0.181E+00
DAV:  15    -0.221449730907E+03   -0.17852E-01   -0.63124E-02 12660   0.674E-01    0.143E+00
DAV:  16    -0.221444694933E+03    0.50360E-02   -0.90039E-03 14328   0.704E-01    0.375E-01
DAV:  17    -0.221445327116E+03   -0.63218E-03   -0.47419E-03 12456   0.179E-01    0.192E-01
DAV:  18    -0.221445566282E+03   -0.23917E-03   -0.24637E-04 14064   0.806E-02    0.872E-02
DAV:  19    -0.221445624599E+03   -0.58317E-04   -0.99915E-05 13680   0.431E-02    0.171E-02
DAV:  20    -0.221445634135E+03   -0.95361E-05   -0.22961E-05 12444   0.145E-02    0.917E-03
DAV:  21    -0.221445632157E+03    0.19787E-05   -0.23241E-06 12648   0.863E-03    0.112E-02
DAV:  22    -0.221445633342E+03   -0.11855E-05   -0.96815E-07 10704   0.510E-03    0.514E-03
DAV:  23    -0.221445633444E+03   -0.10146E-06   -0.29047E-07  9756   0.324E-03    0.666E-04
DAV:  24    -0.221445632976E+03    0.46752E-06   -0.90917E-08  6492   0.855E-04    0.453E-04
DAV:  25    -0.221445632851E+03    0.12550E-06   -0.65392E-09  6216   0.322E-04    0.255E-04
DAV:  26    -0.221445632773E+03    0.77409E-07   -0.11635E-09  6204   0.113E-04
   1 F= -.22144563E+03 E0= -.22144563E+03  d E =0.000000E+00  mag=    42.3306
