 vasp.5.4.4.18Apr17-6-g9f103f2a35 (build Apr 28 2018 00:24:27) complex          
  
 executed on             LinuxIFC date 2021.09.06  03:44:54
 running on   24 total cores
 distrk:  each k-point on   24 cores,    1 groups
 distr:  one band on NCORES_PER_BAND=   4 cores,    6 groups


--------------------------------------------------------------------------------------------------------


 INCAR:
 POTCAR:    PAW_PBE Fe_pv 02Aug2007               
 POTCAR:    PAW_PBE O 08Apr2002                   
 POTCAR:    PAW_PBE Fe_pv 02Aug2007               
   VRHFIN =Fe:  3pd7s1                                                          
   LEXCH  = PE                                                                  
   EATOM  =  2457.4239 eV,  180.6156 Ry                                         
                                                                                
   TITEL  = PAW_PBE Fe_pv 02Aug2007                                             
   LULTRA =        F    use ultrasoft PP ?                                      
   IUNSCR =        1    unscreen: 0-lin 1-nonlin 2-no                           
   RPACOR =    1.750    partial core radius                                     
   POMASS =   55.847; ZVAL   =   14.000    mass and valenz                      
   RCORE  =    2.200    outmost cutoff radius                                   
   RWIGS  =    2.200; RWIGS  =    1.164    wigner-seitz radius (au A)           
   ENMAX  =  293.238; ENMIN  =  219.928 eV                                      
   ICORE  =        3    local potential                                         
   LCOR   =        T    correct aug charges                                     
   LPAW   =        T    paw PP                                                  
   EAUG   =  578.342                                                            
   DEXC   =    0.000                                                            
   RMAX   =    2.249    core radius for proj-oper                               
   RAUG   =    1.300    factor for augmentation sphere                          
   RDEP   =    2.296    radius for radial grids                                 
   RDEPT  =    1.766    core radius for aug-charge                              
                                                                                
   Atomic configuration                                                         
    8 entries                                                                   
     n  l   j            E        occ.                                          
     1  0  0.50     -6993.8440   2.0000                                         
     2  0  0.50      -814.6047   2.0000                                         
     2  1  1.50      -693.3689   6.0000                                         
     3  0  0.50       -89.4732   2.0000                                         
     3  1  1.50       -55.6373   6.0000                                         
     3  2  2.50        -3.8151   7.0000                                         
     4  0  0.50        -4.2551   1.0000                                         
     4  3  2.50        -1.3606   0.0000                                         
   Description                                                                  
     l       E           TYP  RCUT    TYP  RCUT                                 
     1    -55.6372668     23  2.000                                             
     1     -5.4423304     23  2.000                                             
     2     -3.8151096     23  2.200                                             
     2     -5.1756922     23  2.200                                             
     0     -4.2550951     23  2.200                                             
     0     27.2116520     23  2.200                                             
     3     -1.3605826     23  2.200                                             
  local pseudopotential read in
  partial core-charges read in
  partial kinetic energy density read in
  atomic valenz-charges read in
  non local Contribution for L=           1  read in
    real space projection operators read in
  non local Contribution for L=           1  read in
    real space projection operators read in
  non local Contribution for L=           2  read in
    real space projection operators read in
  non local Contribution for L=           2  read in
    real space projection operators read in
  non local Contribution for L=           0  read in
    real space projection operators read in
  non local Contribution for L=           0  read in
    real space projection operators read in
    PAW grid and wavefunctions read in
 
   number of l-projection  operators is LMAX  =           6
   number of lm-projection operators is LMMAX =          18
 
 POTCAR:    PAW_PBE O 08Apr2002                   
   VRHFIN =O: s2p4                                                              
   LEXCH  = PE                                                                  
   EATOM  =   432.3788 eV,   31.7789 Ry                                         
                                                                                
   TITEL  = PAW_PBE O 08Apr2002                                                 
   LULTRA =        F    use ultrasoft PP ?                                      
   IUNSCR =        1    unscreen: 0-lin 1-nonlin 2-no                           
   RPACOR =    1.200    partial core radius                                     
   POMASS =   16.000; ZVAL   =    6.000    mass and valenz                      
   RCORE  =    1.520    outmost cutoff radius                                   
   RWIGS  =    1.550; RWIGS  =    0.820    wigner-seitz radius (au A)           
   ENMAX  =  400.000; ENMIN  =  300.000 eV                                      
   ICORE  =        2    local potential                                         
   LCOR   =        T    correct aug charges                                     
   LPAW   =        T    paw PP                                                  
   EAUG   =  605.392                                                            
   DEXC   =    0.000                                                            
   RMAX   =    1.553    core radius for proj-oper                               
   RAUG   =    1.300    factor for augmentation sphere                          
   RDEP   =    1.550    radius for radial grids                                 
   RDEPT  =    1.329    core radius for aug-charge                              
                                                                                
   Atomic configuration                                                         
    4 entries                                                                   
     n  l   j            E        occ.                                          
     1  0  0.50      -514.6923   2.0000                                         
     2  0  0.50       -23.9615   2.0000                                         
     2  1  0.50        -9.0305   4.0000                                         
     3  2  1.50        -9.5241   0.0000                                         
   Description                                                                  
     l       E           TYP  RCUT    TYP  RCUT                                 
     0    -23.9615318     23  1.200                                             
     0     -9.5240782     23  1.200                                             
     1     -9.0304911     23  1.520                                             
     1      8.1634956     23  1.520                                             
     2     -9.5240782      7  1.500                                             
  local pseudopotential read in
  partial core-charges read in
  partial kinetic energy density read in
  kinetic energy density of atom read in
  atomic valenz-charges read in
  non local Contribution for L=           0  read in
    real space projection operators read in
  non local Contribution for L=           0  read in
    real space projection operators read in
  non local Contribution for L=           1  read in
    real space projection operators read in
  non local Contribution for L=           1  read in
    real space projection operators read in
    PAW grid and wavefunctions read in
 
   number of l-projection  operators is LMAX  =           4
   number of lm-projection operators is LMMAX =           8
 
 Optimization of the real space projectors (new method)

 maximal supplied QI-value         = 17.01
 optimisation between [QCUT,QGAM] = [ 13.78, 27.72] = [ 53.14,215.21] Ry 
 Optimized for a Real-space Cutoff    1.25 Angstroem

   l    n(q)    QCUT    max X(q) W(low)/X(q) W(high)/X(q)  e(spline) 
   1     10    13.776     4.267    0.84E-04    0.47E-03    0.40E-06
   1     10    13.776     5.750    0.13E-03    0.71E-03    0.60E-06
   2      9    13.776    53.656    0.12E-03    0.18E-03    0.32E-06
   2      9    13.776    49.521    0.12E-03    0.19E-03    0.33E-06
   0     10    13.776    31.246    0.61E-04    0.72E-04    0.23E-06
   0     10    13.776    12.201    0.50E-04    0.60E-04    0.19E-06
 Optimization of the real space projectors (new method)

 maximal supplied QI-value         = 24.76
 optimisation between [QCUT,QGAM] = [ 13.86, 27.73] = [ 53.82,215.27] Ry 
 Optimized for a Real-space Cutoff    0.99 Angstroem

   l    n(q)    QCUT    max X(q) W(low)/X(q) W(high)/X(q)  e(spline) 
   0      8    13.863    20.381    0.20E-03    0.39E-03    0.65E-07
   0      8    13.863    15.268    0.21E-03    0.42E-03    0.69E-07
   1      8    13.863     5.964    0.21E-03    0.41E-03    0.11E-06
   1      8    13.863     5.382    0.17E-03    0.35E-03    0.10E-06
  PAW_PBE Fe_pv 02Aug2007               :
 energy of atom  1       EATOM=-2457.4239
 kinetic energy error for atom=    0.0016 (will be added to EATOM!!)
  PAW_PBE O 08Apr2002                   :
 energy of atom  2       EATOM= -432.3788
 kinetic energy error for atom=    0.0064 (will be added to EATOM!!)
 
 
 POSCAR: Fe12 O18                                
  positions in direct lattice
  No initial velocities read in
 exchange correlation table for  LEXCH =        8
   RHO(1)=    0.500       N(1)  =     2000
   RHO(2)=  100.500       N(2)  =     4000
 


--------------------------------------------------------------------------------------------------------


 ion  position               nearest neighbor table
   1  0.000  0.000  0.355-  17 1.94  23 1.94  28 1.94  25 2.12  19 2.12  13 2.12
   2  0.000  0.000  0.645-  16 1.94  22 1.94  29 1.94  26 2.12  20 2.12  14 2.12
   3  0.333  0.667  0.022-  30 1.94  24 1.94  18 1.94  27 2.12  21 2.12  15 2.12
   4  0.667  0.333  0.689-  14 1.94  20 1.94  26 1.94  22 2.12  29 2.12  16 2.12
   5  0.333  0.667  0.311-  13 1.94  19 1.94  25 1.94  23 2.12  28 2.12  17 2.12
   6  0.667  0.333  0.978-  27 1.94  21 1.94  15 1.94  30 2.12  24 2.12  18 2.12
   7  0.000  0.000  0.145-  24 1.94  18 1.94  30 1.94  25 2.12  19 2.12  13 2.12
   8  0.000  0.000  0.855-  21 1.94  15 1.94  27 1.94  26 2.12  20 2.12  14 2.12
   9  0.333  0.667  0.811-  20 1.94  14 1.94  26 1.94  27 2.12  21 2.12  15 2.12
  10  0.333  0.667  0.522-  29 1.94  16 1.94  22 1.94  23 2.12  28 2.12  17 2.12
  11  0.667  0.333  0.478-  28 1.94  17 1.94  23 1.94  22 2.12  29 2.12  16 2.12
  12  0.667  0.333  0.189-  19 1.94  13 1.94  25 1.94  30 2.12  24 2.12  18 2.12
  13  0.306  0.000  0.250-   5 1.94  12 1.94   7 2.12   1 2.12
  14  0.694  0.000  0.750-   4 1.94   9 1.94   8 2.12   2 2.12
  15  0.640  0.667  0.917-   6 1.94   8 1.94   9 2.12   3 2.12
  16  0.973  0.333  0.583-  10 1.94   2 1.94   4 2.12  11 2.12
  17  0.027  0.667  0.417-  11 1.94   1 1.94   5 2.12  10 2.12
  18  0.360  0.333  0.083-   3 1.94   7 1.94  12 2.12   6 2.12
  19  0.000  0.306  0.250-  12 1.94   5 1.94   7 2.12   1 2.12
  20  0.000  0.694  0.750-   9 1.94   4 1.94   8 2.12   2 2.12
  21  0.333  0.973  0.917-   6 1.94   8 1.94   9 2.12   3 2.12
  22  0.667  0.640  0.583-  10 1.94   2 1.94   4 2.12  11 2.12
  23  0.333  0.360  0.417-  11 1.94   1 1.94   5 2.12  10 2.12
  24  0.667  0.027  0.083-   3 1.94   7 1.94  12 2.12   6 2.12
  25  0.694  0.694  0.250-  12 1.94   5 1.94   7 2.12   1 2.12
  26  0.306  0.306  0.750-   9 1.94   4 1.94   8 2.12   2 2.12
  27  0.027  0.360  0.917-   6 1.94   8 1.94   9 2.12   3 2.12
  28  0.640  0.973  0.417-  11 1.94   1 1.94   5 2.12  10 2.12
  29  0.360  0.027  0.583-  10 1.94   2 1.94   4 2.12  11 2.12
  30  0.973  0.640  0.083-   3 1.94   7 1.94  12 2.12   6 2.12
 
  LATTYP: Found a hexagonal cell.
 ALAT       =     5.0350995578
 C/A-ratio  =     2.7324385232
  
  Lattice vectors:
  
 A1 = (   5.0351000000,   0.0000000000,   0.0000000000)
 A2 = (  -2.5175500000,   4.3605240000,   0.0000000000)
 A3 = (   0.0000000000,   0.0000000000,  13.7581000000)


Analysis of symmetry for initial positions (statically):
=====================================================================
 Subroutine PRICEL returns following result:
 
  LATTYP: Found a trigonal (rhomboedric) cell.
 ALAT       =     5.4297801492
 COS(alpha) =     0.5700456062
  
  Lattice vectors:
  
 A1 = (  -2.5175449649,  -1.4535109070,  -4.5860425054)
 A2 = (  -0.0000025175,   2.9070174535,  -4.5860287473)
 A3 = (   2.5175474825,  -1.4535065465,  -4.5860287473)
 
   3 primitive cells build up your supercell.
 

 Routine SETGRP: Setting up the symmetry group for a 
 hexagonal supercell.


 Subroutine GETGRP returns: Found 12 space group operations
 (whereof  6 operations were pure point group operations)
 out of a pool of 24 trial point group operations.


The static configuration has the point symmetry S_6 .
 The point group associated with its full space group is D_3d.


Analysis of symmetry for dynamics (positions and initial velocities):
=====================================================================
 Subroutine PRICEL returns following result:
 
  LATTYP: Found a trigonal (rhomboedric) cell.
 ALAT       =     5.4297801492
 COS(alpha) =     0.5700456062
  
  Lattice vectors:
  
 A1 = (  -2.5175449649,  -1.4535109070,  -4.5860425054)
 A2 = (  -0.0000025175,   2.9070174535,  -4.5860287473)
 A3 = (   2.5175474825,  -1.4535065465,  -4.5860287473)
 
   3 primitive cells build up your supercell.
 

 Routine SETGRP: Setting up the symmetry group for a 
 hexagonal supercell.


 Subroutine GETGRP returns: Found 12 space group operations
 (whereof  6 operations were pure point group operations)
 out of a pool of 24 trial point group operations.


The dynamic configuration has the point symmetry S_6 .
 The point group associated with its full space group is D_3d.


Analysis of structural, dynamic, and magnetic symmetry:
=====================================================================
 Subroutine PRICEL returns following result:
 
  LATTYP: Found a trigonal (rhomboedric) cell.
 ALAT       =     5.4297801492
 COS(alpha) =     0.5700456062
  
  Lattice vectors:
  
 A1 = (  -2.5175449649,  -1.4535109070,  -4.5860425054)
 A2 = (  -0.0000025175,   2.9070174535,  -4.5860287473)
 A3 = (   2.5175474825,  -1.4535065465,  -4.5860287473)
 
   3 primitive cells build up your supercell.
 

 Routine SETGRP: Setting up the symmetry group for a 
 hexagonal supercell.


 Subroutine GETGRP returns: Found 12 space group operations
 (whereof  6 operations were pure point group operations)
 out of a pool of 24 trial point group operations.


The magnetic configuration has the point symmetry S_6 .
 The point group associated with its full space group is D_3d.


 Subroutine INISYM returns: Found 12 space group operations
 (whereof  6 operations are pure point group operations),
 and found     3 'primitive' translations

 
 
 KPOINTS: pymatgen with grid density = 2464 / numb

Automatic generation of k-mesh.
Space group operators:
 irot       det(A)        alpha          n_x          n_y          n_z        tau_x        tau_y        tau_z
    1     1.000000     0.000000     1.000000     0.000000     0.000000     0.000000     0.000000     0.000000
    2    -1.000000     0.000000     1.000000     0.000000     0.000000     0.000000     0.000000     0.000000
    3     1.000000   120.000000     0.000000     0.000000    -1.000000     0.000000     0.000000     0.000000
    4    -1.000000   120.000000     0.000000     0.000000    -1.000000     0.000000     0.000000     0.000000
    5     1.000000   120.000000     0.000000     0.000000     1.000000     0.000000     0.000000     0.000000
    6    -1.000000   120.000000     0.000000     0.000000     1.000000     0.000000     0.000000     0.000000
    7     1.000000   180.000000     1.000000     0.000000     0.000000     0.000001    -0.000000    -0.500000
    8    -1.000000   180.000000     1.000000     0.000000     0.000000     0.000001    -0.000000    -0.500000
    9     1.000000   180.000000     0.500000    -0.866025     0.000000     0.000000     0.000000    -0.500000
   10    -1.000000   180.000000     0.500000    -0.866025     0.000000     0.000000     0.000000    -0.500000
   11     1.000000   180.000000    -0.500000    -0.866025     0.000000     0.000000     0.000000    -0.500000
   12    -1.000000   180.000000    -0.500000    -0.866025     0.000000     0.000000     0.000000    -0.500000
 
 Subroutine IBZKPT returns following result:
 ===========================================
 
 Found     14 irreducible k-points:
 
 Following reciprocal coordinates:
            Coordinates               Weight
  0.000000  0.000000  0.000000      1.000000
  0.166667  0.000000  0.000000      6.000000
  0.333333  0.000000  0.000000      6.000000
  0.500000  0.000000  0.000000      3.000000
  0.166667  0.166667  0.000000      6.000000
  0.333333  0.166667  0.000000     12.000000
  0.333333  0.333333  0.000000      2.000000
  0.000000  0.000000  0.500000      1.000000
  0.166667  0.000000  0.500000      6.000000
  0.333333  0.000000  0.500000      6.000000
  0.500000  0.000000  0.500000      3.000000
  0.166667  0.166667  0.500000      6.000000
  0.333333  0.166667  0.500000     12.000000
  0.333333  0.333333  0.500000      2.000000
 
 Following cartesian coordinates:
            Coordinates               Weight
  0.000000  0.000000  0.000000      1.000000
  0.033101  0.019111  0.000000      6.000000
  0.066202  0.038222  0.000000      6.000000
  0.099303  0.057333  0.000000      3.000000
  0.033101  0.057333  0.000000      6.000000
  0.066202  0.076443  0.000000     12.000000
  0.066202  0.114665  0.000000      2.000000
  0.000000  0.000000  0.036342      1.000000
  0.033101  0.019111  0.036342      6.000000
  0.066202  0.038222  0.036342      6.000000
  0.099303  0.057333  0.036342      3.000000
  0.033101  0.057333  0.036342      6.000000
  0.066202  0.076443  0.036342     12.000000
  0.066202  0.114665  0.036342      2.000000
 
 TETIRR: Found     71 inequivalent tetrahedra from      432


--------------------------------------------------------------------------------------------------------




 Dimension of arrays:
   k-points           NKPTS =     14   k-points in BZ     NKDIM =     14   number of bands    NBANDS=    204
   number of dos      NEDOS =    301   number of ions     NIONS =     30
   non local maximal  LDIM  =      6   non local SUM 2l+1 LMDIM =     18
   total plane-waves  NPLWV = 290304
   max r-space proj   IRMAX =   7880   max aug-charges    IRDMAX=  28660
   dimension x,y,z NGX =    48 NGY =   48 NGZ =  126
   dimension x,y,z NGXF=    96 NGYF=   96 NGZF=  252
   support grid    NGXF=    96 NGYF=   96 NGZF=  252
   ions per type =              12  18
   NGX,Y,Z   is equivalent  to a cutoff of  15.85, 15.85, 15.23 a.u.
   NGXF,Y,Z  is equivalent  to a cutoff of  31.70, 31.70, 30.45 a.u.

 SYSTEM =  unknown system                          
 POSCAR =  Fe12 O18                                

 Startparameter for this run:
   NWRITE =      2    write-flag & timer
   PREC   = accura    normal or accurate (medium, high low for compatibility)
   ISTART =      0    job   : 0-new  1-cont  2-samecut
   ICHARG =      2    charge: 1-file 2-atom 10-const
   ISPIN  =      2    spin polarized calculation?
   LNONCOLLINEAR =      F non collinear calculations
   LSORBIT =      F    spin-orbit coupling
   INIWAV =      1    electr: 0-lowe 1-rand  2-diag
   LASPH  =      F    aspherical Exc in radial PAW
   METAGGA=      F    non-selfconsistent MetaGGA calc.

 Electronic Relaxation 1
   ENCUT  =  740.0 eV  54.39 Ry    7.37 a.u.  11.17 11.17 30.52*2*pi/ulx,y,z
   ENINI  =  740.0     initial cutoff
   ENAUG  =  605.4 eV  augmentation charge cutoff
   NELM   =    100;   NELMIN=  2; NELMDL= -5     # of ELM steps 
   EDIFF  = 0.1E-06   stopping-criterion for ELM
   LREAL  =      T    real-space projection
   NLSPLINE    = F    spline interpolate recip. space projectors
   LCOMPAT=      F    compatible to vasp.4.4
   GGA_COMPAT  = T    GGA compatible to vasp.4.4-vasp.4.6
   LMAXPAW     = -100 max onsite density
   LMAXMIX     =    2 max onsite mixed and CHGCAR
   VOSKOWN=      0    Vosko Wilk Nusair interpolation
   ROPT   =   -0.00025  -0.00025
 Ionic relaxation
   EDIFFG = 0.1E-05   stopping-criterion for IOM
   NSW    =      0    number of steps for IOM
   NBLOCK =      1;   KBLOCK =      1    inner block; outer block 
   IBRION =     -1    ionic relax: 0-MD 1-quasi-New 2-CG
   NFREE  =      0    steps in history (QN), initial steepest desc. (CG)
   ISIF   =      3    stress and relaxation
   IWAVPR =     10    prediction:  0-non 1-charg 2-wave 3-comb
   ISYM   =      2    0-nonsym 1-usesym 2-fastsym
   LCORR  =      T    Harris-Foulkes like correction to forces

   POTIM  = 0.5000    time-step for ionic-motion
   TEIN   =    0.0    initial temperature
   TEBEG  =    0.0;   TEEND  =   0.0 temperature during run
   SMASS  =  -3.00    Nose mass-parameter (am)
   estimated Nose-frequenzy (Omega)   =  0.10E-29 period in steps =****** mass=  -0.579E-27a.u.
   SCALEE = 1.0000    scale energy and forces
   NPACO  =    256;   APACO  = 16.0  distance and # of slots for P.C.
   PSTRESS=    0.0 pullay stress

  Mass of Ions in am
   POMASS =  55.85 16.00
  Ionic Valenz
   ZVAL   =  14.00  6.00
  Atomic Wigner-Seitz radii
   RWIGS  =  -1.00 -1.00
  virtual crystal weights 
   VCA    =   1.00  1.00
   NELECT =     276.0000    total number of electrons
   NUPDOWN=      -1.0000    fix difference up-down

 DOS related values:
   EMIN   =  10.00;   EMAX   =-10.00  energy-range for DOS
   EFERMI =   0.00
   ISMEAR =    -5;   SIGMA  =   0.05  broadening in eV -4-tet -1-fermi 0-gaus

 Electronic relaxation 2 (details)
   IALGO  =     38    algorithm
   LDIAG  =      T    sub-space diagonalisation (order eigenvalues)
   LSUBROT=      F    optimize rotation matrix (better conditioning)
   TURBO    =      0    0=normal 1=particle mesh
   IRESTART =      0    0=no restart 2=restart with 2 vectors
   NREBOOT  =      0    no. of reboots
   NMIN     =      0    reboot dimension
   EREF     =   0.00    reference energy to select bands
   IMIX   =      4    mixing-type and parameters
     AMIX     =   0.40;   BMIX     =  1.00
     AMIX_MAG =   1.60;   BMIX_MAG =  1.00
     AMIN     =   0.10
     WC   =   100.;   INIMIX=   1;  MIXPRE=   1;  MAXMIX= -45

 Intra band minimization:
   WEIMIN = 0.0000     energy-eigenvalue tresh-hold
   EBREAK =  0.12E-09  absolut break condition
   DEPER  =   0.30     relativ break condition  

   TIME   =   0.40     timestep for ELM

  volume/ion in A,a.u.               =      10.07        67.95
  Fermi-wavevector in a.u.,A,eV,Ry     =   1.588581  3.001983 34.335534  2.523591
  Thomas-Fermi vector in A             =   2.687563
 
 Write flags
   LWAVE        =      F    write WAVECAR
   LDOWNSAMPLE  =      F    k-point downsampling of WAVECAR
   LCHARG       =      F    write CHGCAR
   LVTOT        =      F    write LOCPOT, total local potential
   LVHAR        =      F    write LOCPOT, Hartree potential only
   LELF         =      F    write electronic localiz. function (ELF)
   LORBIT       =     11    0 simple, 1 ext, 2 COOP (PROOUT), +10 PAW based schemes


 Dipole corrections
   LMONO  =      F    monopole corrections only (constant potential shift)
   LDIPOL =      F    correct potential (dipole corrections)
   IDIPOL =      0    1-x, 2-y, 3-z, 4-all directions 
   EPSILON=  1.0000000 bulk dielectric constant

 Exchange correlation treatment:
   GGA     =    --    GGA type
   LEXCH   =     8    internal setting for exchange type
   VOSKOWN=      0    Vosko Wilk Nusair interpolation
   LHFCALC =     F    Hartree Fock is set to
   LHFONE  =     F    Hartree Fock one center treatment
   AEXX    =    0.0000 exact exchange contribution

 Linear response parameters
   LEPSILON=     F    determine dielectric tensor
   LRPA    =     F    only Hartree local field effects (RPA)
   LNABLA  =     F    use nabla operator in PAW spheres
   LVEL    =     F    velocity operator in full k-point grid
   LINTERFAST=   F  fast interpolation
   KINTER  =     0    interpolate to denser k-point grid
   CSHIFT  =0.1000    complex shift for real part using Kramers Kronig
   OMEGAMAX=  -1.0    maximum frequency
   DEG_THRESHOLD= 0.2000000E-02 threshold for treating states as degnerate
   RTIME   =   -0.100 relaxation time in fs
  (WPLASMAI=    0.000 imaginary part of plasma frequency in eV, 0.658/RTIME)
   DFIELD  = 0.0000000 0.0000000 0.0000000 field for delta impulse in time
 
 Orbital magnetization related:
   ORBITALMAG=     F  switch on orbital magnetization
   LCHIMAG   =     F  perturbation theory with respect to B field
   DQ        =  0.001000  dq finite difference perturbation B field
   LLRAUG    =     F  two centre corrections for induced B field



--------------------------------------------------------------------------------------------------------


 Static calculation
 charge density and potential will be updated during run
 spin polarized calculation
 Variant of blocked Davidson
 Davidson routine will perform the subspace rotation
 perform sub-space diagonalisation
    after iterative eigenvector-optimisation
 modified Broyden-mixing scheme, WC =      100.0
 initial mixing is a Kerker type mixing with AMIX =  0.4000 and BMIX =      1.0000
 Hartree-type preconditioning will be used
 using additional bands           66
 real space projection scheme for non local part
 use partial core corrections
 calculate Harris-corrections to forces 
   (improved forces if not selfconsistent)
 use gradient corrections 
 use of overlap-Matrix (Vanderbilt PP)
 Fermi weights with tetrahedron method with Bloechl corrections


--------------------------------------------------------------------------------------------------------


  energy-cutoff  :      740.00
  volume of cell :      302.07
      direct lattice vectors                 reciprocal lattice vectors
     5.035100000  0.000000000  0.000000000     0.198605787  0.114665118  0.000000000
    -2.517550000  4.360524000  0.000000000     0.000000000  0.229330236  0.000000000
     0.000000000  0.000000000 13.758100000     0.000000000  0.000000000  0.072684455

  length of vectors
     5.035100000  5.035099558 13.758100000     0.229330216  0.229330236  0.072684455


 
 k-points in units of 2pi/SCALE and weight: pymatgen with grid density = 2464 / numb
   0.00000000  0.00000000  0.00000000       0.014
   0.03310096  0.01911085  0.00000000       0.083
   0.06620193  0.03822171  0.00000000       0.083
   0.09930289  0.05733256  0.00000000       0.042
   0.03310096  0.05733256  0.00000000       0.083
   0.06620193  0.07644341  0.00000000       0.167
   0.06620193  0.11466512  0.00000000       0.028
   0.00000000  0.00000000  0.03634223       0.014
   0.03310096  0.01911085  0.03634223       0.083
   0.06620193  0.03822171  0.03634223       0.083
   0.09930289  0.05733256  0.03634223       0.042
   0.03310096  0.05733256  0.03634223       0.083
   0.06620193  0.07644341  0.03634223       0.167
   0.06620193  0.11466512  0.03634223       0.028
 
 k-points in reciprocal lattice and weights: pymatgen with grid density = 2464 / numb
   0.00000000  0.00000000  0.00000000       0.014
   0.16666667  0.00000000  0.00000000       0.083
   0.33333333  0.00000000  0.00000000       0.083
   0.50000000  0.00000000  0.00000000       0.042
   0.16666667  0.16666667  0.00000000       0.083
   0.33333333  0.16666667  0.00000000       0.167
   0.33333333  0.33333333  0.00000000       0.028
   0.00000000  0.00000000  0.50000000       0.014
   0.16666667  0.00000000  0.50000000       0.083
   0.33333333  0.00000000  0.50000000       0.083
   0.50000000  0.00000000  0.50000000       0.042
   0.16666667  0.16666667  0.50000000       0.083
   0.33333333  0.16666667  0.50000000       0.167
   0.33333333  0.33333333  0.50000000       0.028
 
 position of ions in fractional coordinates (direct lattice) 
   0.00000000  0.00000000  0.35532000
   0.00000000  0.00000000  0.64468000
   0.33333300  0.66666700  0.02198700
   0.66666700  0.33333300  0.68865300
   0.33333300  0.66666700  0.31134700
   0.66666700  0.33333300  0.97801300
   0.00000000  0.00000000  0.14468000
   0.00000000  0.00000000  0.85532000
   0.33333300  0.66666700  0.81134700
   0.33333300  0.66666700  0.52198700
   0.66666700  0.33333300  0.47801300
   0.66666700  0.33333300  0.18865300
   0.30618000  0.00000000  0.25000000
   0.69382000  0.00000000  0.75000000
   0.63951300  0.66666700  0.91666700
   0.97284700  0.33333300  0.58333300
   0.02715300  0.66666700  0.41666700
   0.36048700  0.33333300  0.08333300
   0.00000000  0.30618000  0.25000000
   0.00000000  0.69382000  0.75000000
   0.33333300  0.97284700  0.91666700
   0.66666700  0.63951300  0.58333300
   0.33333300  0.36048700  0.41666700
   0.66666700  0.02715300  0.08333300
   0.69382000  0.69382000  0.25000000
   0.30618000  0.30618000  0.75000000
   0.02715300  0.36048700  0.91666700
   0.63951300  0.97284700  0.41666700
   0.36048700  0.02715300  0.58333300
   0.97284700  0.63951300  0.08333300
 
 position of ions in cartesian coordinates  (Angst):
   0.00000000  0.00000000  4.88852809
   0.00000000  0.00000000  8.86957191
  -0.00000252  2.90701745  0.30249934
   2.51755252  1.45350655  9.47455684
  -0.00000252  2.90701745  4.28354316
   2.51755252  1.45350655 13.45560066
   0.00000000  0.00000000  1.99052191
   0.00000000  0.00000000 11.76757809
  -0.00000252  2.90701745 11.16259316
  -0.00000252  2.90701745  7.18154934
   2.51755252  1.45350655  6.57655066
   2.51755252  1.45350655  2.59550684
   1.54164692  0.00000000  3.43952500
   3.49345308  0.00000000 10.31857500
   1.54164440  2.90701745 12.61159625
   4.05919944  1.45350655  8.02555375
  -1.54164944  2.90701745  5.73254625
   0.97590560  1.45350655  1.14650375
  -0.77082346  1.33510524  3.43952500
  -1.74672654  3.02541876 10.31857500
  -0.77082598  4.24212269 12.61159625
   1.74672906  2.78861178  8.02555375
   0.77082094  1.57191222  5.73254625
   3.28837598  0.11840131  1.14650375
   1.74672654  3.02541876  3.43952500
   0.77082346  1.33510524 10.31857500
  -0.77082598  1.57191222 12.61159625
   0.77082094  4.24212269  5.73254625
   1.74672906  0.11840131  8.02555375
   3.28837598  2.78861178  1.14650375
 


--------------------------------------------------------------------------------------------------------


 k-point  1 :   0.0000 0.0000 0.0000  plane waves:   13897
 k-point  2 :   0.1667 0.0000 0.0000  plane waves:   13781
 k-point  3 :   0.3333 0.0000 0.0000  plane waves:   13828
 k-point  4 :   0.5000 0.0000 0.0000  plane waves:   13784
 k-point  5 :   0.1667 0.1667 0.0000  plane waves:   13809
 k-point  6 :   0.3333 0.1667 0.0000  plane waves:   13809
 k-point  7 :   0.3333 0.3333 0.0000  plane waves:   13827
 k-point  8 :   0.0000 0.0000 0.5000  plane waves:   13754
 k-point  9 :   0.1667 0.0000 0.5000  plane waves:   13766
 k-point 10 :   0.3333 0.0000 0.5000  plane waves:   13784
 k-point 11 :   0.5000 0.0000 0.5000  plane waves:   13812
 k-point 12 :   0.1667 0.1667 0.5000  plane waves:   13784
 k-point 13 :   0.3333 0.1667 0.5000  plane waves:   13810
 k-point 14 :   0.3333 0.3333 0.5000  plane waves:   13836

 maximum and minimum number of plane-waves per node :      3487     3424

 maximum number of plane-waves:     13897
 maximum index in each direction: 
   IXMAX=   11   IYMAX=   11   IZMAX=   30
   IXMIN=  -11   IYMIN=  -11   IZMIN=  -31


 real space projection operators:
  total allocation   :      17035.31 KBytes
  max/ min on nodes  :       4297.69       4193.62


 parallel 3D FFT for wavefunctions:
    minimum data exchange during FFTs selected (reduces bandwidth)
 parallel 3D FFT for charge:
    minimum data exchange during FFTs selected (reduces bandwidth)


 total amount of memory used by VASP MPI-rank0   113121. kBytes
=======================================================================

   base      :      30000. kBytes
   nonlr-proj:       9289. kBytes
   fftplans  :       5408. kBytes
   grid      :      13615. kBytes
   one-center:        248. kBytes
   wavefun   :      54561. kBytes
 
     INWAV:  cpu time    0.0000: real time    0.0001
 Broyden mixing: mesh for mixing (old mesh)
   NGX = 23   NGY = 23   NGZ = 61
  (NGX  = 96   NGY  = 96   NGZ  =252)
  gives a total of  32269 points

 initial charge density was supplied:
 charge density of overlapping atoms calculated
 number of electron     276.0000000 magnetization      70.8000000
 keeping initial charge density in first step


--------------------------------------------------------------------------------------------------------


 Maximum index for non-local projection operator         1925
 Maximum index for augmentation-charges         1260 (set IRDMAX)


--------------------------------------------------------------------------------------------------------


 First call to EWALD:  gamma=   0.264
 Maximum number of real-space cells 4x 4x 2
 Maximum number of reciprocal cells 2x 2x 5

    FEWALD:  cpu time    0.0018: real time    0.0018


--------------------------------------- Iteration      1(   1)  ---------------------------------------


    POTLOK:  cpu time    0.1323: real time    0.1335
    SETDIJ:  cpu time    0.0153: real time    0.0154
     EDDAV:  cpu time   20.8288: real time   20.8903
 BZINTS: Fermi energy: 31.441485;276.000000 electrons
         Band energy:1801.150662;  BLOECHL correction: -0.058226
       DOS:  cpu time    0.0447: real time    0.0448
    --------------------------------------------
      LOOP:  cpu time   21.0211: real time   21.0840

 eigenvalue-minimisations  : 11520
 total energy-change (2. order) : 0.4817744E+04  (-0.1685445E+05)
 number of electron     276.0000000 magnetization      70.8000000
 augmentation part      276.0000000 magnetization      70.8000000

 Free energy of the ion-electron system (eV)
  ---------------------------------------------------
  alpha Z        PSCENC =      1362.55286497
  Ewald energy   TEWEN  =    -25513.06237826
  -Hartree energ DENC   =    -10371.14386019
  -exchange      EXHF   =         0.00000000
  -V(xc)+E(xc)   XCENC  =      1375.27778339
  PAW double counting   =     30224.59406688   -31333.39571732
  entropy T*S    EENTRO =         0.00000000
  eigenvalues    EBANDS =      1801.15066166
  atomic energy  EATOM  =     37271.77010628
  Solvation  Ediel_sol  =         0.00000000
  ---------------------------------------------------
  free energy    TOTEN  =      4817.74352740 eV

  energy without entropy =     4817.74352740  energy(sigma->0) =     4817.74352740


--------------------------------------------------------------------------------------------------------




--------------------------------------- Iteration      1(   2)  ---------------------------------------


     EDDAV:  cpu time   20.6213: real time   20.6761
 BZINTS: Fermi energy: 11.940659;276.000000 electrons
         Band energy:***********;  BLOECHL correction: -0.021830
       DOS:  cpu time    0.0476: real time    0.0477
    --------------------------------------------
      LOOP:  cpu time   20.6689: real time   20.7238

 eigenvalue-minimisations  : 11424
 total energy-change (2. order) :-0.4238663E+04  (-0.3873465E+04)
 number of electron     276.0000000 magnetization      70.8000000
 augmentation part      276.0000000 magnetization      70.8000000

 Free energy of the ion-electron system (eV)
  ---------------------------------------------------
  alpha Z        PSCENC =      1362.55286497
  Ewald energy   TEWEN  =    -25513.06237826
  -Hartree energ DENC   =    -10371.14386019
  -exchange      EXHF   =         0.00000000
  -V(xc)+E(xc)   XCENC  =      1375.27778339
  PAW double counting   =     30224.59406688   -31333.39571732
  entropy T*S    EENTRO =         0.00000000
  eigenvalues    EBANDS =     -2437.51280081
  atomic energy  EATOM  =     37271.77010628
  Solvation  Ediel_sol  =         0.00000000
  ---------------------------------------------------
  free energy    TOTEN  =       579.08006493 eV

  energy without entropy =      579.08006493  energy(sigma->0) =      579.08006493


--------------------------------------------------------------------------------------------------------




--------------------------------------- Iteration      1(   3)  ---------------------------------------


     EDDAV:  cpu time   21.2421: real time   21.2966
 BZINTS: Fermi energy:  8.677886;276.000000 electrons
         Band energy:***********;  BLOECHL correction:  0.000000
       DOS:  cpu time    0.0071: real time    0.0071
    --------------------------------------------
      LOOP:  cpu time   21.2492: real time   21.3038

 eigenvalue-minimisations  : 11856
 total energy-change (2. order) :-0.8135551E+03  (-0.7089085E+03)
 number of electron     276.0000000 magnetization      70.8000000
 augmentation part      276.0000000 magnetization      70.8000000

 Free energy of the ion-electron system (eV)
  ---------------------------------------------------
  alpha Z        PSCENC =      1362.55286497
  Ewald energy   TEWEN  =    -25513.06237826
  -Hartree energ DENC   =    -10371.14386019
  -exchange      EXHF   =         0.00000000
  -V(xc)+E(xc)   XCENC  =      1375.27778339
  PAW double counting   =     30224.59406688   -31333.39571732
  entropy T*S    EENTRO =         0.00000000
  eigenvalues    EBANDS =     -3251.06785840
  atomic energy  EATOM  =     37271.77010628
  Solvation  Ediel_sol  =         0.00000000
  ---------------------------------------------------
  free energy    TOTEN  =      -234.47499267 eV

  energy without entropy =     -234.47499267  energy(sigma->0) =     -234.47499267


--------------------------------------------------------------------------------------------------------




--------------------------------------- Iteration      1(   4)  ---------------------------------------


     EDDAV:  cpu time   22.7220: real time   22.7815
 BZINTS: Fermi energy:  8.188254;276.000000 electrons
         Band energy:***********;  BLOECHL correction:  0.000000
       DOS:  cpu time    0.0061: real time    0.0061
    --------------------------------------------
      LOOP:  cpu time   22.7281: real time   22.7876

 eigenvalue-minimisations  : 12924
 total energy-change (2. order) :-0.5932428E+02  (-0.5861289E+02)
 number of electron     276.0000000 magnetization      70.8000000
 augmentation part      276.0000000 magnetization      70.8000000

 Free energy of the ion-electron system (eV)
  ---------------------------------------------------
  alpha Z        PSCENC =      1362.55286497
  Ewald energy   TEWEN  =    -25513.06237826
  -Hartree energ DENC   =    -10371.14386019
  -exchange      EXHF   =         0.00000000
  -V(xc)+E(xc)   XCENC  =      1375.27778339
  PAW double counting   =     30224.59406688   -31333.39571732
  entropy T*S    EENTRO =         0.00000000
  eigenvalues    EBANDS =     -3310.39213461
  atomic energy  EATOM  =     37271.77010628
  Solvation  Ediel_sol  =         0.00000000
  ---------------------------------------------------
  free energy    TOTEN  =      -293.79926887 eV

  energy without entropy =     -293.79926887  energy(sigma->0) =     -293.79926887


--------------------------------------------------------------------------------------------------------




--------------------------------------- Iteration      1(   5)  ---------------------------------------


     EDDAV:  cpu time   22.5548: real time   22.6133
 BZINTS: Fermi energy:  8.317293;276.000000 electrons
         Band energy:***********;  BLOECHL correction:  0.000000
       DOS:  cpu time    0.0073: real time    0.0074
    CHARGE:  cpu time    0.8058: real time    0.8079
    MIXING:  cpu time    0.0033: real time    0.0033
    --------------------------------------------
      LOOP:  cpu time   23.3713: real time   23.4319

 eigenvalue-minimisations  : 12792
 total energy-change (2. order) :-0.6863813E+00  (-0.6842469E+00)
 number of electron     275.9999956 magnetization      67.8179396
 augmentation part      108.0154185 magnetization      47.0428023

 Broyden mixing:
  rms(total) = 0.80933E+01    rms(broyden)= 0.80933E+01
  rms(prec ) = 0.88394E+01
  weight for this iteration     100.00

 Free energy of the ion-electron system (eV)
  ---------------------------------------------------
  alpha Z        PSCENC =      1362.55286497
  Ewald energy   TEWEN  =    -25513.06237826
  -Hartree energ DENC   =    -10371.14386019
  -exchange      EXHF   =         0.00000000
  -V(xc)+E(xc)   XCENC  =      1375.27778339
  PAW double counting   =     30224.59406688   -31333.39571732
  entropy T*S    EENTRO =         0.00000000
  eigenvalues    EBANDS =     -3311.07851595
  atomic energy  EATOM  =     37271.77010628
  Solvation  Ediel_sol  =         0.00000000
  ---------------------------------------------------
  free energy    TOTEN  =      -294.48565021 eV

  energy without entropy =     -294.48565021  energy(sigma->0) =     -294.48565021


--------------------------------------------------------------------------------------------------------




--------------------------------------- Iteration      1(   6)  ---------------------------------------


    POTLOK:  cpu time    0.1290: real time    0.1303
    SETDIJ:  cpu time    0.0151: real time    0.0151
     EDDAV:  cpu time   25.3469: real time   25.4110
 BZINTS: Fermi energy:  5.535286;276.000000 electrons
         Band energy:***********;  BLOECHL correction: -0.054575
       DOS:  cpu time    0.0487: real time    0.0488
    CHARGE:  cpu time    0.8389: real time    0.8410
    MIXING:  cpu time    0.0034: real time    0.0034
    --------------------------------------------
      LOOP:  cpu time   26.3819: real time   26.4497

 eigenvalue-minimisations  : 14820
 total energy-change (2. order) : 0.5919880E+02  (-0.2531355E+02)
 number of electron     275.9999915 magnetization      62.9805532
 augmentation part      120.7107830 magnetization      54.4143497

 Broyden mixing:
  rms(total) = 0.91215E+01    rms(broyden)= 0.91214E+01
  rms(prec ) = 0.97706E+01
  weight for this iteration     100.00

 eigenvalues of (default mixing * dielectric matrix)
  average eigenvalue GAMMA=   0.3186
  0.3186

 Free energy of the ion-electron system (eV)
  ---------------------------------------------------
  alpha Z        PSCENC =      1362.55286497
  Ewald energy   TEWEN  =    -25513.06237826
  -Hartree energ DENC   =     -9965.72265355
  -exchange      EXHF   =         0.00000000
  -V(xc)+E(xc)   XCENC  =      1376.64026435
  PAW double counting   =     31438.81660368   -32505.69821563
  entropy T*S    EENTRO =         0.00000000
  eigenvalues    EBANDS =     -3700.58343727
  atomic energy  EATOM  =     37271.77010628
  Solvation  Ediel_sol  =         0.00000000
  ---------------------------------------------------
  free energy    TOTEN  =      -235.28684545 eV

  energy without entropy =     -235.28684545  energy(sigma->0) =     -235.28684545


--------------------------------------------------------------------------------------------------------




--------------------------------------- Iteration      1(   7)  ---------------------------------------


    POTLOK:  cpu time    0.1234: real time    0.1243
    SETDIJ:  cpu time    0.0146: real time    0.0146
     EDDAV:  cpu time   22.5101: real time   22.5676
 BZINTS: Fermi energy:  7.079745;276.000000 electrons
         Band energy:***********;  BLOECHL correction: -0.036445
       DOS:  cpu time    0.0475: real time    0.0477
    CHARGE:  cpu time    0.8264: real time    0.8285
    MIXING:  cpu time    0.0032: real time    0.0032
    --------------------------------------------
      LOOP:  cpu time   23.5252: real time   23.5859

 eigenvalue-minimisations  : 12264
 total energy-change (2. order) : 0.2324673E+02  (-0.1141270E+02)
 number of electron     275.9999943 magnetization      58.7844085
 augmentation part      109.3464602 magnetization      40.3296405

 Broyden mixing:
  rms(total) = 0.43692E+01    rms(broyden)= 0.43692E+01
  rms(prec ) = 0.45290E+01
  weight for this iteration     100.00

 eigenvalues of (default mixing * dielectric matrix)
  average eigenvalue GAMMA=   0.6788
  1.0272  0.3304

 Free energy of the ion-electron system (eV)
  ---------------------------------------------------
  alpha Z        PSCENC =      1362.55286497
  Ewald energy   TEWEN  =    -25513.06237826
  -Hartree energ DENC   =    -10207.60639436
  -exchange      EXHF   =         0.00000000
  -V(xc)+E(xc)   XCENC  =      1372.38530748
  PAW double counting   =     32871.90388814   -34000.32969673
  entropy T*S    EENTRO =         0.00000000
  eigenvalues    EBANDS =     -3369.65381690
  atomic energy  EATOM  =     37271.77010628
  Solvation  Ediel_sol  =         0.00000000
  ---------------------------------------------------
  free energy    TOTEN  =      -212.04011939 eV

  energy without entropy =     -212.04011939  energy(sigma->0) =     -212.04011939


--------------------------------------------------------------------------------------------------------




--------------------------------------- Iteration      1(   8)  ---------------------------------------


    POTLOK:  cpu time    0.1302: real time    0.1308
    SETDIJ:  cpu time    0.0149: real time    0.0150
     EDDAV:  cpu time   22.1467: real time   22.2028
 BZINTS: Fermi energy:  6.445922;276.000000 electrons
         Band energy:***********;  BLOECHL correction: -0.034125
       DOS:  cpu time    0.0487: real time    0.0488
    CHARGE:  cpu time    0.8251: real time    0.8273
    MIXING:  cpu time    0.0032: real time    0.0032
    --------------------------------------------
      LOOP:  cpu time   23.1688: real time   23.2279

 eigenvalue-minimisations  : 12072
 total energy-change (2. order) :-0.6255068E+01  (-0.2141369E+01)
 number of electron     275.9999940 magnetization      51.9492109
 augmentation part      111.2675311 magnetization      35.0286341

 Broyden mixing:
  rms(total) = 0.26533E+01    rms(broyden)= 0.26533E+01
  rms(prec ) = 0.27135E+01
  weight for this iteration     100.00

 eigenvalues of (default mixing * dielectric matrix)
  average eigenvalue GAMMA=   1.0716
  2.2517  0.5796  0.3836

 Free energy of the ion-electron system (eV)
  ---------------------------------------------------
  alpha Z        PSCENC =      1362.55286497
  Ewald energy   TEWEN  =    -25513.06237826
  -Hartree energ DENC   =    -10072.31818265
  -exchange      EXHF   =         0.00000000
  -V(xc)+E(xc)   XCENC  =      1366.37027088
  PAW double counting   =     34231.54829757   -35371.69351810
  entropy T*S    EENTRO =         0.00000000
  eigenvalues    EBANDS =     -3493.46264838
  atomic energy  EATOM  =     37271.77010628
  Solvation  Ediel_sol  =         0.00000000
  ---------------------------------------------------
  free energy    TOTEN  =      -218.29518771 eV

  energy without entropy =     -218.29518771  energy(sigma->0) =     -218.29518771


--------------------------------------------------------------------------------------------------------




--------------------------------------- Iteration      1(   9)  ---------------------------------------


    POTLOK:  cpu time    0.1288: real time    0.1292
    SETDIJ:  cpu time    0.0151: real time    0.0151
     EDDAV:  cpu time   22.1883: real time   22.2448
 BZINTS: Fermi energy:  5.882039;276.000000 electrons
         Band energy:***********;  BLOECHL correction: -0.038384
       DOS:  cpu time    0.0513: real time    0.0514
    CHARGE:  cpu time    0.8233: real time    0.8255
    MIXING:  cpu time    0.0035: real time    0.0035
    --------------------------------------------
      LOOP:  cpu time   23.2103: real time   23.2695

 eigenvalue-minimisations  : 12588
 total energy-change (2. order) :-0.4188665E+01  (-0.8200544E+00)
 number of electron     275.9999932 magnetization      50.9188319
 augmentation part      114.1254871 magnetization      37.7868108

 Broyden mixing:
  rms(total) = 0.27053E+01    rms(broyden)= 0.27053E+01
  rms(prec ) = 0.28345E+01
  weight for this iteration     100.00

 eigenvalues of (default mixing * dielectric matrix)
  average eigenvalue GAMMA=   1.1015
  2.8505  0.8033  0.3762  0.3762

 Free energy of the ion-electron system (eV)
  ---------------------------------------------------
  alpha Z        PSCENC =      1362.55286497
  Ewald energy   TEWEN  =    -25513.06237826
  -Hartree energ DENC   =     -9933.73270152
  -exchange      EXHF   =         0.00000000
  -V(xc)+E(xc)   XCENC  =      1362.36688503
  PAW double counting   =     36518.24687349   -37687.19615183
  entropy T*S    EENTRO =         0.00000000
  eigenvalues    EBANDS =     -3603.42935058
  atomic energy  EATOM  =     37271.77010628
  Solvation  Ediel_sol  =         0.00000000
  ---------------------------------------------------
  free energy    TOTEN  =      -222.48385244 eV

  energy without entropy =     -222.48385244  energy(sigma->0) =     -222.48385244


--------------------------------------------------------------------------------------------------------




--------------------------------------- Iteration      1(  10)  ---------------------------------------


    POTLOK:  cpu time    0.1287: real time    0.1297
    SETDIJ:  cpu time    0.0149: real time    0.0149
     EDDAV:  cpu time   22.1804: real time   22.2365
 BZINTS: Fermi energy:  5.959022;276.000000 electrons
         Band energy:***********;  BLOECHL correction: -0.037131
       DOS:  cpu time    0.0449: real time    0.0452
    CHARGE:  cpu time    0.8224: real time    0.8243
    MIXING:  cpu time    0.0033: real time    0.0033
    --------------------------------------------
      LOOP:  cpu time   23.1946: real time   23.2539

 eigenvalue-minimisations  : 12516
 total energy-change (2. order) : 0.3303092E+00  (-0.2452256E+00)
 number of electron     275.9999933 magnetization      50.6145863
 augmentation part      113.4180043 magnetization      37.3042906

 Broyden mixing:
  rms(total) = 0.18592E+01    rms(broyden)= 0.18592E+01
  rms(prec ) = 0.19697E+01
  weight for this iteration     100.00

 eigenvalues of (default mixing * dielectric matrix)
  average eigenvalue GAMMA=   1.0182
  2.6180  0.3741  0.7703  0.6643  0.6643

 Free energy of the ion-electron system (eV)
  ---------------------------------------------------
  alpha Z        PSCENC =      1362.55286497
  Ewald energy   TEWEN  =    -25513.06237826
  -Hartree energ DENC   =     -9949.18885152
  -exchange      EXHF   =         0.00000000
  -V(xc)+E(xc)   XCENC  =      1360.91591460
  PAW double counting   =     36556.52947057   -37728.85440048
  entropy T*S    EENTRO =         0.00000000
  eigenvalues    EBANDS =     -3582.81626937
  atomic energy  EATOM  =     37271.77010628
  Solvation  Ediel_sol  =         0.00000000
  ---------------------------------------------------
  free energy    TOTEN  =      -222.15354321 eV

  energy without entropy =     -222.15354321  energy(sigma->0) =     -222.15354321


--------------------------------------------------------------------------------------------------------




--------------------------------------- Iteration      1(  11)  ---------------------------------------


    POTLOK:  cpu time    0.1287: real time    0.1294
    SETDIJ:  cpu time    0.0150: real time    0.0150
     EDDAV:  cpu time   24.5572: real time   24.6257
 BZINTS: Fermi energy:  6.020107;276.000000 electrons
         Band energy:***********;  BLOECHL correction: -0.034019
       DOS:  cpu time    0.0485: real time    0.0486
    CHARGE:  cpu time    0.8242: real time    0.8263
    MIXING:  cpu time    0.0033: real time    0.0034
    --------------------------------------------
      LOOP:  cpu time   25.5769: real time   25.6483

 eigenvalue-minimisations  : 14292
 total energy-change (2. order) : 0.5630660E+00  (-0.2270661E-01)
 number of electron     275.9999935 magnetization      49.3057541
 augmentation part      112.9995640 magnetization      35.6122095

 Broyden mixing:
  rms(total) = 0.12189E+01    rms(broyden)= 0.12189E+01
  rms(prec ) = 0.12922E+01
  weight for this iteration     100.00

 eigenvalues of (default mixing * dielectric matrix)
  average eigenvalue GAMMA=   1.0454
  2.5829  0.9716  0.9716  0.3792  0.7997  0.5672

 Free energy of the ion-electron system (eV)
  ---------------------------------------------------
  alpha Z        PSCENC =      1362.55286497
  Ewald energy   TEWEN  =    -25513.06237826
  -Hartree energ DENC   =     -9960.28182751
  -exchange      EXHF   =         0.00000000
  -V(xc)+E(xc)   XCENC  =      1360.24419897
  PAW double counting   =     36387.22515924   -37557.55218141
  entropy T*S    EENTRO =         0.00000000
  eigenvalues    EBANDS =     -3572.48641954
  atomic energy  EATOM  =     37271.77010628
  Solvation  Ediel_sol  =         0.00000000
  ---------------------------------------------------
  free energy    TOTEN  =      -221.59047726 eV

  energy without entropy =     -221.59047726  energy(sigma->0) =     -221.59047726


--------------------------------------------------------------------------------------------------------




--------------------------------------- Iteration      1(  12)  ---------------------------------------


    POTLOK:  cpu time    0.1265: real time    0.1270
    SETDIJ:  cpu time    0.0146: real time    0.0147
     EDDAV:  cpu time   25.8051: real time   25.8740
 BZINTS: Fermi energy:  6.079635;276.000000 electrons
         Band energy:***********;  BLOECHL correction: -0.033337
       DOS:  cpu time    0.0449: real time    0.0450
    CHARGE:  cpu time    0.8251: real time    0.8277
    MIXING:  cpu time    0.0037: real time    0.0037
    --------------------------------------------
      LOOP:  cpu time   26.8199: real time   26.8921

 eigenvalue-minimisations  : 15264
 total energy-change (2. order) : 0.2021599E+00  (-0.1961815E-01)
 number of electron     275.9999935 magnetization      46.8760220
 augmentation part      112.6796734 magnetization      33.0797784

 Broyden mixing:
  rms(total) = 0.84345E+00    rms(broyden)= 0.84345E+00
  rms(prec ) = 0.88443E+00
  weight for this iteration     100.00

 eigenvalues of (default mixing * dielectric matrix)
  average eigenvalue GAMMA=   1.0970
  2.1450  1.6402  1.4912  0.3778  0.7522  0.6363  0.6363

 Free energy of the ion-electron system (eV)
  ---------------------------------------------------
  alpha Z        PSCENC =      1362.55286497
  Ewald energy   TEWEN  =    -25513.06237826
  -Hartree energ DENC   =     -9973.22640365
  -exchange      EXHF   =         0.00000000
  -V(xc)+E(xc)   XCENC  =      1359.59594874
  PAW double counting   =     36271.66005123   -37440.92492460
  entropy T*S    EENTRO =         0.00000000
  eigenvalues    EBANDS =     -3559.75358204
  atomic energy  EATOM  =     37271.77010628
  Solvation  Ediel_sol  =         0.00000000
  ---------------------------------------------------
  free energy    TOTEN  =      -221.38831734 eV

  energy without entropy =     -221.38831734  energy(sigma->0) =     -221.38831734


--------------------------------------------------------------------------------------------------------




--------------------------------------- Iteration      1(  13)  ---------------------------------------


    POTLOK:  cpu time    0.1280: real time    0.1285
    SETDIJ:  cpu time    0.0151: real time    0.0151
     EDDAV:  cpu time   24.0355: real time   24.0964
 BZINTS: Fermi energy:  6.138844;276.000000 electrons
         Band energy:***********;  BLOECHL correction: -0.034430
       DOS:  cpu time    0.0512: real time    0.0513
    CHARGE:  cpu time    0.8241: real time    0.8263
    MIXING:  cpu time    0.0037: real time    0.0037
    --------------------------------------------
      LOOP:  cpu time   25.0576: real time   25.1214

 eigenvalue-minimisations  : 13920
 total energy-change (2. order) : 0.1155584E-02  (-0.1119438E-01)
 number of electron     275.9999936 magnetization      43.9728768
 augmentation part      112.4099611 magnetization      30.4233652

 Broyden mixing:
  rms(total) = 0.46820E+00    rms(broyden)= 0.46820E+00
  rms(prec ) = 0.49153E+00
  weight for this iteration     100.00

 eigenvalues of (default mixing * dielectric matrix)
  average eigenvalue GAMMA=   1.3939
  3.4313  3.4313  0.3781  0.9301  0.9301  0.7251  0.7251  0.6002

 Free energy of the ion-electron system (eV)
  ---------------------------------------------------
  alpha Z        PSCENC =      1362.55286497
  Ewald energy   TEWEN  =    -25513.06237826
  -Hartree energ DENC   =     -9991.17542719
  -exchange      EXHF   =         0.00000000
  -V(xc)+E(xc)   XCENC  =      1358.77840266
  PAW double counting   =     36043.23255930   -37209.46630923
  entropy T*S    EENTRO =         0.00000000
  eigenvalues    EBANDS =     -3544.01698029
  atomic energy  EATOM  =     37271.77010628
  Solvation  Ediel_sol  =         0.00000000
  ---------------------------------------------------
  free energy    TOTEN  =      -221.38716176 eV

  energy without entropy =     -221.38716176  energy(sigma->0) =     -221.38716176


--------------------------------------------------------------------------------------------------------




--------------------------------------- Iteration      1(  14)  ---------------------------------------


    POTLOK:  cpu time    0.1254: real time    0.1258
    SETDIJ:  cpu time    0.0150: real time    0.0150
     EDDAV:  cpu time   25.4960: real time   25.5608
 BZINTS: Fermi energy:  6.171270;276.000000 electrons
         Band energy:***********;  BLOECHL correction: -0.032760
       DOS:  cpu time    0.0498: real time    0.0499
    CHARGE:  cpu time    0.8256: real time    0.8277
    MIXING:  cpu time    0.0040: real time    0.0040
    --------------------------------------------
      LOOP:  cpu time   26.5158: real time   26.5833

 eigenvalue-minimisations  : 15000
 total energy-change (2. order) :-0.4471677E-01  (-0.1533753E-01)
 number of electron     275.9999936 magnetization      43.0627882
 augmentation part      112.2255666 magnetization      29.8985950

 Broyden mixing:
  rms(total) = 0.18142E+00    rms(broyden)= 0.18142E+00
  rms(prec ) = 0.18907E+00
  weight for this iteration     100.00

 eigenvalues of (default mixing * dielectric matrix)
  average eigenvalue GAMMA=   1.5060
  5.3617  2.7791  1.2192  0.3781  0.8414  0.8414  0.8837  0.6247  0.6247

 Free energy of the ion-electron system (eV)
  ---------------------------------------------------
  alpha Z        PSCENC =      1362.55286497
  Ewald energy   TEWEN  =    -25513.06237826
  -Hartree energ DENC   =    -10003.86690789
  -exchange      EXHF   =         0.00000000
  -V(xc)+E(xc)   XCENC  =      1357.68463136
  PAW double counting   =     35842.25995506   -37005.45961783
  entropy T*S    EENTRO =         0.00000000
  eigenvalues    EBANDS =     -3533.31053222
  atomic energy  EATOM  =     37271.77010628
  Solvation  Ediel_sol  =         0.00000000
  ---------------------------------------------------
  free energy    TOTEN  =      -221.43187853 eV

  energy without entropy =     -221.43187853  energy(sigma->0) =     -221.43187853


--------------------------------------------------------------------------------------------------------




--------------------------------------- Iteration      1(  15)  ---------------------------------------


    POTLOK:  cpu time    0.1278: real time    0.1284
    SETDIJ:  cpu time    0.0151: real time    0.0151
     EDDAV:  cpu time   22.3147: real time   22.3766
 BZINTS: Fermi energy:  6.157463;276.000000 electrons
         Band energy:***********;  BLOECHL correction: -0.032968
       DOS:  cpu time    0.0498: real time    0.0499
    CHARGE:  cpu time    0.8226: real time    0.8248
    MIXING:  cpu time    0.0041: real time    0.0041
    --------------------------------------------
      LOOP:  cpu time   23.3342: real time   23.3988

 eigenvalue-minimisations  : 12660
 total energy-change (2. order) :-0.1785238E-01  (-0.6312447E-02)
 number of electron     275.9999936 magnetization      42.6285495
 augmentation part      112.2761353 magnetization      29.6367308

 Broyden mixing:
  rms(total) = 0.14290E+00    rms(broyden)= 0.14290E+00
  rms(prec ) = 0.15134E+00
  weight for this iteration     100.00

 eigenvalues of (default mixing * dielectric matrix)
  average eigenvalue GAMMA=   1.5465
  6.1218  2.8519  1.3601  1.0711  0.3781  0.8494  0.8494  0.6935  0.6935  0.5958

 Free energy of the ion-electron system (eV)
  ---------------------------------------------------
  alpha Z        PSCENC =      1362.55286497
  Ewald energy   TEWEN  =    -25513.06237826
  -Hartree energ DENC   =    -10002.58329951
  -exchange      EXHF   =         0.00000000
  -V(xc)+E(xc)   XCENC  =      1357.19264619
  PAW double counting   =     35828.99573043   -36991.82725401
  entropy T*S    EENTRO =         0.00000000
  eigenvalues    EBANDS =     -3534.48814698
  atomic energy  EATOM  =     37271.77010628
  Solvation  Ediel_sol  =         0.00000000
  ---------------------------------------------------
  free energy    TOTEN  =      -221.44973091 eV

  energy without entropy =     -221.44973091  energy(sigma->0) =     -221.44973091


--------------------------------------------------------------------------------------------------------




--------------------------------------- Iteration      1(  16)  ---------------------------------------


    POTLOK:  cpu time    0.1264: real time    0.1273
    SETDIJ:  cpu time    0.0149: real time    0.0149
     EDDAV:  cpu time   24.6128: real time   24.6839
 BZINTS: Fermi energy:  6.178750;276.000000 electrons
         Band energy:***********;  BLOECHL correction: -0.032849
       DOS:  cpu time    0.0497: real time    0.0498
    CHARGE:  cpu time    0.8243: real time    0.8264
    MIXING:  cpu time    0.0041: real time    0.0042
    --------------------------------------------
      LOOP:  cpu time   25.6321: real time   25.7064

 eigenvalue-minimisations  : 14328
 total energy-change (2. order) : 0.5035974E-02  (-0.9003884E-03)
 number of electron     275.9999937 magnetization      42.4879792
 augmentation part      112.1857605 magnetization      29.4961072

 Broyden mixing:
  rms(total) = 0.37501E-01    rms(broyden)= 0.37500E-01
  rms(prec ) = 0.39208E-01
  weight for this iteration     100.00

 eigenvalues of (default mixing * dielectric matrix)
  average eigenvalue GAMMA=   1.5367
  6.3089  2.7860  1.3184  1.3184  1.1115  0.3781  0.8113  0.8113  0.7255  0.7255
  0.6092

 Free energy of the ion-electron system (eV)
  ---------------------------------------------------
  alpha Z        PSCENC =      1362.55286497
  Ewald energy   TEWEN  =    -25513.06237826
  -Hartree energ DENC   =    -10007.23086126
  -exchange      EXHF   =         0.00000000
  -V(xc)+E(xc)   XCENC  =      1357.08352253
  PAW double counting   =     35787.12514393   -36949.85985970
  entropy T*S    EENTRO =         0.00000000
  eigenvalues    EBANDS =     -3529.82323341
  atomic energy  EATOM  =     37271.77010628
  Solvation  Ediel_sol  =         0.00000000
  ---------------------------------------------------
  free energy    TOTEN  =      -221.44469493 eV

  energy without entropy =     -221.44469493  energy(sigma->0) =     -221.44469493


--------------------------------------------------------------------------------------------------------




--------------------------------------- Iteration      1(  17)  ---------------------------------------


    POTLOK:  cpu time    0.1267: real time    0.1271
    SETDIJ:  cpu time    0.0149: real time    0.0150
     EDDAV:  cpu time   22.0277: real time   22.0839
 BZINTS: Fermi energy:  6.179941;276.000000 electrons
         Band energy:***********;  BLOECHL correction: -0.032795
       DOS:  cpu time    0.0473: real time    0.0475
    CHARGE:  cpu time    0.8209: real time    0.8230
    MIXING:  cpu time    0.0046: real time    0.0046
    --------------------------------------------
      LOOP:  cpu time   23.0421: real time   23.1011

 eigenvalue-minimisations  : 12456
 total energy-change (2. order) :-0.6321830E-03  (-0.4741946E-03)
 number of electron     275.9999937 magnetization      42.3896265
 augmentation part      112.1808329 magnetization      29.4113865

 Broyden mixing:
  rms(total) = 0.19163E-01    rms(broyden)= 0.19163E-01
  rms(prec ) = 0.19761E-01
  weight for this iteration     100.00

 eigenvalues of (default mixing * dielectric matrix)
  average eigenvalue GAMMA=   1.5609
  6.5129  2.7651  2.4496  1.0717  1.0717  0.3781  0.8913  0.8913  0.7207  0.7207
  0.6043  0.6531

 Free energy of the ion-electron system (eV)
  ---------------------------------------------------
  alpha Z        PSCENC =      1362.55286497
  Ewald energy   TEWEN  =    -25513.06237826
  -Hartree energ DENC   =    -10006.96032317
  -exchange      EXHF   =         0.00000000
  -V(xc)+E(xc)   XCENC  =      1357.01612540
  PAW double counting   =     35806.90773206   -36970.19928233
  entropy T*S    EENTRO =         0.00000000
  eigenvalues    EBANDS =     -3529.47017206
  atomic energy  EATOM  =     37271.77010628
  Solvation  Ediel_sol  =         0.00000000
  ---------------------------------------------------
  free energy    TOTEN  =      -221.44532712 eV

  energy without entropy =     -221.44532712  energy(sigma->0) =     -221.44532712


--------------------------------------------------------------------------------------------------------




--------------------------------------- Iteration      1(  18)  ---------------------------------------


    POTLOK:  cpu time    0.1271: real time    0.1277
    SETDIJ:  cpu time    0.0147: real time    0.0147
     EDDAV:  cpu time   24.2823: real time   24.3448
 BZINTS: Fermi energy:  6.180339;276.000000 electrons
         Band energy:***********;  BLOECHL correction: -0.032922
       DOS:  cpu time    0.0497: real time    0.0498
    CHARGE:  cpu time    0.8283: real time    0.8304
    MIXING:  cpu time    0.0046: real time    0.0046
    --------------------------------------------
      LOOP:  cpu time   25.3067: real time   25.3721

 eigenvalue-minimisations  : 14064
 total energy-change (2. order) :-0.2391662E-03  (-0.2463739E-04)
 number of electron     275.9999937 magnetization      42.3378305
 augmentation part      112.1761276 magnetization      29.3774894

 Broyden mixing:
  rms(total) = 0.87250E-02    rms(broyden)= 0.87248E-02
  rms(prec ) = 0.90812E-02
  weight for this iteration     100.00

 eigenvalues of (default mixing * dielectric matrix)
  average eigenvalue GAMMA=   1.5330
  6.6471  2.8419  2.4475  1.1472  1.1472  0.9597  0.9597  0.3781  0.7427  0.7427
  0.6878  0.6133  0.6133

 Free energy of the ion-electron system (eV)
  ---------------------------------------------------
  alpha Z        PSCENC =      1362.55286497
  Ewald energy   TEWEN  =    -25513.06237826
  -Hartree energ DENC   =    -10007.23629294
  -exchange      EXHF   =         0.00000000
  -V(xc)+E(xc)   XCENC  =      1356.96674037
  PAW double counting   =     35805.12477110   -36968.46471712
  entropy T*S    EENTRO =         0.00000000
  eigenvalues    EBANDS =     -3529.09666068
  atomic energy  EATOM  =     37271.77010628
  Solvation  Ediel_sol  =         0.00000000
  ---------------------------------------------------
  free energy    TOTEN  =      -221.44556628 eV

  energy without entropy =     -221.44556628  energy(sigma->0) =     -221.44556628


--------------------------------------------------------------------------------------------------------




--------------------------------------- Iteration      1(  19)  ---------------------------------------


    POTLOK:  cpu time    0.1259: real time    0.1269
    SETDIJ:  cpu time    0.0149: real time    0.0149
     EDDAV:  cpu time   23.7395: real time   23.8006
 BZINTS: Fermi energy:  6.181324;276.000000 electrons
         Band energy:***********;  BLOECHL correction: -0.032983
       DOS:  cpu time    0.0461: real time    0.0462
    CHARGE:  cpu time    0.8270: real time    0.8292
    MIXING:  cpu time    0.0050: real time    0.0050
    --------------------------------------------
      LOOP:  cpu time   24.7585: real time   24.8228

 eigenvalue-minimisations  : 13680
 total energy-change (2. order) :-0.5831673E-04  (-0.9991516E-05)
 number of electron     275.9999937 magnetization      42.3297134
 augmentation part      112.1717922 magnetization      29.3777243

 Broyden mixing:
  rms(total) = 0.17138E-02    rms(broyden)= 0.17135E-02
  rms(prec ) = 0.18270E-02
  weight for this iteration     100.00

 eigenvalues of (default mixing * dielectric matrix)
  average eigenvalue GAMMA=   1.5143
  6.7091  2.8505  2.4290  1.2965  1.2965  0.9878  0.9878  0.3781  0.7767  0.7767
  0.7407  0.7407  0.6150  0.6150

 Free energy of the ion-electron system (eV)
  ---------------------------------------------------
  alpha Z        PSCENC =      1362.55286497
  Ewald energy   TEWEN  =    -25513.06237826
  -Hartree energ DENC   =    -10007.58467347
  -exchange      EXHF   =         0.00000000
  -V(xc)+E(xc)   XCENC  =      1356.94634803
  PAW double counting   =     35800.60360705   -36963.88846403
  entropy T*S    EENTRO =         0.00000000
  eigenvalues    EBANDS =     -3528.78303517
  atomic energy  EATOM  =     37271.77010628
  Solvation  Ediel_sol  =         0.00000000
  ---------------------------------------------------
  free energy    TOTEN  =      -221.44562460 eV

  energy without entropy =     -221.44562460  energy(sigma->0) =     -221.44562460


--------------------------------------------------------------------------------------------------------




--------------------------------------- Iteration      1(  20)  ---------------------------------------


    POTLOK:  cpu time    0.1288: real time    0.1292
    SETDIJ:  cpu time    0.0147: real time    0.0147
     EDDAV:  cpu time   22.0680: real time   22.1241
 BZINTS: Fermi energy:  6.181673;276.000000 electrons
         Band energy:***********;  BLOECHL correction: -0.032990
       DOS:  cpu time    0.0497: real time    0.0498
    CHARGE:  cpu time    0.8201: real time    0.8222
    MIXING:  cpu time    0.0048: real time    0.0048
    --------------------------------------------
      LOOP:  cpu time   23.0860: real time   23.1448

 eigenvalue-minimisations  : 12444
 total energy-change (2. order) :-0.9536059E-05  (-0.2296116E-05)
 number of electron     275.9999937 magnetization      42.3261651
 augmentation part      112.1711671 magnetization      29.3756533

 Broyden mixing:
  rms(total) = 0.91677E-03    rms(broyden)= 0.91672E-03
  rms(prec ) = 0.93778E-03
  weight for this iteration     100.00

 eigenvalues of (default mixing * dielectric matrix)
  average eigenvalue GAMMA=   1.5117
  6.7411  2.9649  2.4061  1.8624  1.0826  1.0826  1.0094  1.0094  0.3781  0.7386
  0.7386  0.6048  0.7150  0.6707  0.6707

 Free energy of the ion-electron system (eV)
  ---------------------------------------------------
  alpha Z        PSCENC =      1362.55286497
  Ewald energy   TEWEN  =    -25513.06237826
  -Hartree energ DENC   =    -10007.66464035
  -exchange      EXHF   =         0.00000000
  -V(xc)+E(xc)   XCENC  =      1356.94325015
  PAW double counting   =     35800.51842045   -36963.80972745
  entropy T*S    EENTRO =         0.00000000
  eigenvalues    EBANDS =     -3528.69352992
  atomic energy  EATOM  =     37271.77010628
  Solvation  Ediel_sol  =         0.00000000
  ---------------------------------------------------
  free energy    TOTEN  =      -221.44563414 eV

  energy without entropy =     -221.44563414  energy(sigma->0) =     -221.44563414


--------------------------------------------------------------------------------------------------------




--------------------------------------- Iteration      1(  21)  ---------------------------------------


    POTLOK:  cpu time    0.1283: real time    0.1290
    SETDIJ:  cpu time    0.0150: real time    0.0150
     EDDAV:  cpu time   22.3132: real time   22.3707
 BZINTS: Fermi energy:  6.182048;276.000000 electrons
         Band energy:***********;  BLOECHL correction: -0.032988
       DOS:  cpu time    0.0473: real time    0.0474
    CHARGE:  cpu time    0.8218: real time    0.8240
    MIXING:  cpu time    0.0050: real time    0.0050
    --------------------------------------------
      LOOP:  cpu time   23.3306: real time   23.3910

 eigenvalue-minimisations  : 12648
 total energy-change (2. order) : 0.1978660E-05  (-0.2324073E-06)
 number of electron     275.9999937 magnetization      42.3280373
 augmentation part      112.1699338 magnetization      29.3772953

 Broyden mixing:
  rms(total) = 0.11157E-02    rms(broyden)= 0.11157E-02
  rms(prec ) = 0.11820E-02
  weight for this iteration     100.00

 eigenvalues of (default mixing * dielectric matrix)
  average eigenvalue GAMMA=   1.5042
  6.7425  3.0092  2.4414  2.1981  1.1934  1.1934  0.9938  0.9938  0.3781  0.7790
  0.7790  0.7333  0.7333  0.6164  0.6164  0.6659

 Free energy of the ion-electron system (eV)
  ---------------------------------------------------
  alpha Z        PSCENC =      1362.55286497
  Ewald energy   TEWEN  =    -25513.06237826
  -Hartree energ DENC   =    -10007.74105114
  -exchange      EXHF   =         0.00000000
  -V(xc)+E(xc)   XCENC  =      1356.94414865
  PAW double counting   =     35800.15900643   -36963.45996437
  entropy T*S    EENTRO =         0.00000000
  eigenvalues    EBANDS =     -3528.60836472
  atomic energy  EATOM  =     37271.77010628
  Solvation  Ediel_sol  =         0.00000000
  ---------------------------------------------------
  free energy    TOTEN  =      -221.44563216 eV

  energy without entropy =     -221.44563216  energy(sigma->0) =     -221.44563216


--------------------------------------------------------------------------------------------------------




--------------------------------------- Iteration      1(  22)  ---------------------------------------


    POTLOK:  cpu time    0.1260: real time    0.1276
    SETDIJ:  cpu time    0.0148: real time    0.0149
     EDDAV:  cpu time   19.7264: real time   19.7768
 BZINTS: Fermi energy:  6.181900;276.000000 electrons
         Band energy:***********;  BLOECHL correction: -0.032989
       DOS:  cpu time    0.0499: real time    0.0501
    CHARGE:  cpu time    0.8220: real time    0.8242
    MIXING:  cpu time    0.0056: real time    0.0056
    --------------------------------------------
      LOOP:  cpu time   20.7448: real time   20.7991

 eigenvalue-minimisations  : 10704
 total energy-change (2. order) :-0.1185479E-05  (-0.9681474E-07)
 number of electron     275.9999937 magnetization      42.3301740
 augmentation part      112.1705575 magnetization      29.3795057

 Broyden mixing:
  rms(total) = 0.51395E-03    rms(broyden)= 0.51395E-03
  rms(prec ) = 0.54409E-03
  weight for this iteration     100.00

 eigenvalues of (default mixing * dielectric matrix)
  average eigenvalue GAMMA=   1.4868
  6.7264  2.9779  2.6431  2.1454  1.3727  0.3781  1.0173  1.0173  1.0263  1.0263
  0.7479  0.7479  0.7923  0.7923  0.6085  0.6275  0.6275

 Free energy of the ion-electron system (eV)
  ---------------------------------------------------
  alpha Z        PSCENC =      1362.55286497
  Ewald energy   TEWEN  =    -25513.06237826
  -Hartree energ DENC   =    -10007.70762035
  -exchange      EXHF   =         0.00000000
  -V(xc)+E(xc)   XCENC  =      1356.94434665
  PAW double counting   =     35800.42235385   -36963.72596151
  entropy T*S    EENTRO =         0.00000000
  eigenvalues    EBANDS =     -3528.63934495
  atomic energy  EATOM  =     37271.77010628
  Solvation  Ediel_sol  =         0.00000000
  ---------------------------------------------------
  free energy    TOTEN  =      -221.44563334 eV

  energy without entropy =     -221.44563334  energy(sigma->0) =     -221.44563334


--------------------------------------------------------------------------------------------------------




--------------------------------------- Iteration      1(  23)  ---------------------------------------


    POTLOK:  cpu time    0.1288: real time    0.1295
    SETDIJ:  cpu time    0.0147: real time    0.0147
     EDDAV:  cpu time   18.4200: real time   18.4672
 BZINTS: Fermi energy:  6.181802;276.000000 electrons
         Band energy:***********;  BLOECHL correction: -0.032990
       DOS:  cpu time    0.0463: real time    0.0464
    CHARGE:  cpu time    0.8224: real time    0.8246
    MIXING:  cpu time    0.0052: real time    0.0052
    --------------------------------------------
      LOOP:  cpu time   19.4374: real time   19.4876

 eigenvalue-minimisations  :  9756
 total energy-change (2. order) :-0.1014632E-06  (-0.2904703E-07)
 number of electron     275.9999937 magnetization      42.3305145
 augmentation part      112.1709674 magnetization      29.3797291

 Broyden mixing:
  rms(total) = 0.66623E-04    rms(broyden)= 0.66616E-04
  rms(prec ) = 0.68916E-04
  weight for this iteration     100.00

 eigenvalues of (default mixing * dielectric matrix)
  average eigenvalue GAMMA=   1.4816
  6.7240  3.0113  2.6962  2.2650  1.3855  1.3855  0.3781  1.0186  1.0186  0.9593
  0.9593  0.7466  0.7466  0.7731  0.7081  0.6118  0.6536  0.6276

 Free energy of the ion-electron system (eV)
  ---------------------------------------------------
  alpha Z        PSCENC =      1362.55286497
  Ewald energy   TEWEN  =    -25513.06237826
  -Hartree energ DENC   =    -10007.68342894
  -exchange      EXHF   =         0.00000000
  -V(xc)+E(xc)   XCENC  =      1356.94493795
  PAW double counting   =     35800.62502324   -36963.93100602
  entropy T*S    EENTRO =         0.00000000
  eigenvalues    EBANDS =     -3528.66175266
  atomic energy  EATOM  =     37271.77010628
  Solvation  Ediel_sol  =         0.00000000
  ---------------------------------------------------
  free energy    TOTEN  =      -221.44563344 eV

  energy without entropy =     -221.44563344  energy(sigma->0) =     -221.44563344


--------------------------------------------------------------------------------------------------------




--------------------------------------- Iteration      1(  24)  ---------------------------------------


    POTLOK:  cpu time    0.1271: real time    0.1275
    SETDIJ:  cpu time    0.0146: real time    0.0146
     EDDAV:  cpu time   14.1012: real time   14.1370
 BZINTS: Fermi energy:  6.181809;276.000000 electrons
         Band energy:***********;  BLOECHL correction: -0.032989
       DOS:  cpu time    0.0497: real time    0.0498
    CHARGE:  cpu time    0.8264: real time    0.8285
    MIXING:  cpu time    0.0054: real time    0.0055
    --------------------------------------------
      LOOP:  cpu time   15.1244: real time   15.1629

 eigenvalue-minimisations  :  6492
 total energy-change (2. order) : 0.4675239E-06  (-0.9091727E-08)
 number of electron     275.9999937 magnetization      42.3305378
 augmentation part      112.1709150 magnetization      29.3796858

 Broyden mixing:
  rms(total) = 0.45288E-04    rms(broyden)= 0.45286E-04
  rms(prec ) = 0.46924E-04
  weight for this iteration     100.00

 eigenvalues of (default mixing * dielectric matrix)
[...]
  0.000  -0.002  -0.000  -0.000  -0.001   0.000  -0.000   0.000  -0.006  -0.000   0.000   0.000  -0.000   0.009  -0.000  -0.000
 total augmentation occupancy for first ion, spin component:           2
 -0.003   0.000  -0.000  -0.010   0.000   0.000   0.002   0.001  -0.000   0.000   0.000  -0.003  -0.002   0.000  -0.000  -0.000
 -0.000  -0.003  -0.000  -0.000  -0.010   0.000  -0.000   0.000  -0.001  -0.000   0.000  -0.000  -0.000   0.002  -0.000  -0.000
  0.000  -0.000  -0.003  -0.000   0.000  -0.010   0.000  -0.000   0.000   0.001  -0.002  -0.000   0.000  -0.000  -0.002   0.003
 -0.010   0.000  -0.000   0.021  -0.000   0.000  -0.085  -0.050  -0.000   0.002   0.013   0.049   0.032   0.000  -0.001  -0.008
  0.000  -0.010   0.000  -0.000   0.017  -0.000   0.000  -0.000   0.076   0.000  -0.000   0.000   0.000  -0.043   0.000   0.000
  0.000   0.000  -0.010  -0.000   0.000   0.021   0.013  -0.002  -0.000  -0.050   0.085  -0.008   0.001   0.000   0.032  -0.049
  0.002  -0.000   0.000  -0.085  -0.000   0.013   4.294   0.576  -0.000  -0.179  -0.000  -2.428  -0.470  -0.000   0.166   0.002
  0.001  -0.000  -0.000  -0.050  -0.000  -0.002   0.576   5.020   0.000  -0.000  -0.179  -0.469  -3.025  -0.000   0.003   0.166
 -0.000  -0.001   0.000  -0.000   0.076  -0.000  -0.000   0.000   4.387   0.000  -0.000   0.000  -0.000  -2.383  -0.000   0.000
  0.000  -0.000   0.001   0.002  -0.000  -0.050  -0.179  -0.000   0.000   5.020  -0.576   0.166  -0.003  -0.000  -3.025   0.469
  0.000   0.000  -0.002   0.013  -0.000   0.085   0.000  -0.179  -0.000  -0.576   4.294  -0.002   0.166   0.000   0.470  -2.428
 -0.003  -0.000  -0.000   0.049  -0.000  -0.008  -2.428  -0.469   0.000   0.166  -0.002   1.294   0.332   0.000  -0.129   0.000
 -0.002   0.000   0.000   0.032  -0.000   0.001  -0.470  -3.025  -0.000  -0.003   0.166   0.332   1.750   0.000  -0.000  -0.129
  0.000   0.002  -0.000   0.000  -0.043   0.000  -0.000  -0.000  -2.383  -0.000   0.000   0.000   0.000   1.231   0.000  -0.000
 -0.000   0.000  -0.002  -0.001  -0.000   0.032   0.166   0.003  -0.000  -3.025   0.470  -0.129   0.000   0.000   1.750  -0.332
 -0.000  -0.000   0.003  -0.008   0.000  -0.049   0.002   0.166   0.000   0.469  -2.428   0.000  -0.129  -0.000  -0.332   1.294
  0.000   0.000   0.000  -0.000   0.001  -0.000   0.000  -0.000   0.044   0.000  -0.000   0.000  -0.000  -0.022  -0.000   0.000
  0.000   0.000  -0.000  -0.000   0.001   0.000  -0.000   0.000   0.007  -0.000  -0.000   0.000   0.000  -0.005   0.000   0.000


------------------------ aborting loop because EDIFF is reached ----------------------------------------


 


 total charge     
 
# of ion       s       p       d       tot
------------------------------------------
    1        0.284   6.340   5.852  12.476
    2        0.284   6.340   5.855  12.478
    3        0.284   6.340   5.862  12.486
    4        0.284   6.340   5.852  12.475
    5        0.283   6.340   5.855  12.478
    6        0.284   6.340   5.865  12.489
    7        0.284   6.340   5.851  12.474
    8        0.284   6.340   5.853  12.477
    9        0.283   6.340   5.854  12.478
   10        0.283   6.340   5.868  12.492
   11        0.283   6.340   5.865  12.489
   12        0.283   6.340   5.857  12.480
   13        1.568   3.417   0.000   4.984
   14        1.568   3.416   0.000   4.984
   15        1.568   3.417   0.000   4.984
   16        1.568   3.418   0.000   4.985
   17        1.568   3.418   0.000   4.985
   18        1.568   3.417   0.000   4.984
   19        1.567   3.404   0.000   4.971
   20        1.567   3.404   0.000   4.971
   21        1.567   3.405   0.000   4.972
   22        1.567   3.405   0.000   4.972
   23        1.567   3.405   0.000   4.972
   24        1.567   3.405   0.000   4.972
   25        1.569   3.418   0.000   4.986
   26        1.569   3.417   0.000   4.986
   27        1.569   3.419   0.000   4.987
   28        1.569   3.420   0.000   4.989
   29        1.569   3.420   0.000   4.988
   30        1.569   3.419   0.000   4.988
--------------------------------------------------
tot         31.620 137.523  70.289 239.432
 


 magnetization (x)
 
# of ion       s       p       d       tot
------------------------------------------
    1        0.024   0.036   3.140   3.201
    2        0.024   0.036   3.137   3.198
    3        0.025   0.036   3.134   3.195
    4        0.025   0.036   3.140   3.200
    5        0.025   0.036   3.140   3.201
    6        0.025   0.036   3.132   3.192
    7        0.024   0.036   3.125   3.185
    8        0.024   0.036   3.122   3.182
    9        0.025   0.036   3.122   3.183
   10        0.025   0.036   3.116   3.177
   11        0.025   0.036   3.118   3.179
   12        0.025   0.036   3.122   3.183
   13        0.020   0.139   0.000   0.159
   14        0.020   0.139   0.000   0.159
   15        0.020   0.139   0.000   0.159
   16        0.020   0.140   0.000   0.160
   17        0.020   0.140   0.000   0.161
   18        0.020   0.139   0.000   0.160
   19        0.021   0.143   0.000   0.165
   20        0.021   0.143   0.000   0.164
   21        0.021   0.144   0.000   0.165
   22        0.021   0.144   0.000   0.165
   23        0.021   0.144   0.000   0.165
   24        0.021   0.144   0.000   0.165
   25        0.020   0.135   0.000   0.156
   26        0.020   0.135   0.000   0.155
   27        0.020   0.136   0.000   0.157
   28        0.020   0.137   0.000   0.158
   29        0.020   0.137   0.000   0.157
   30        0.020   0.137   0.000   0.157
--------------------------------------------------
tot          0.668   2.947  37.549  41.164
 
    CHARGE:  cpu time    0.8006: real time    0.8026
    FORLOC:  cpu time    0.0145: real time    0.0146
    FORNL :  cpu time    6.0020: real time    6.0176
    STRESS:  cpu time   18.3030: real time   18.3493
    FORCOR:  cpu time    0.1370: real time    0.1374
    FORHAR:  cpu time    0.0255: real time    0.0256
    MIXING:  cpu time    0.0062: real time    0.0062
    OFIELD:  cpu time    0.0001: real time    0.0001

  FORCE on cell =-STRESS in cart. coord.  units (eV):
  Direction    XX          YY          ZZ          XY          YZ          ZX
  --------------------------------------------------------------------------------------
  Alpha Z  1362.55286  1362.55286  1362.55286
  Ewald   -8201.75422 -8201.75360 -9109.63806     0.00000     0.00002    -0.00000
  Hartree  3503.89693  3503.89678  2999.88595    -0.00000     0.00001    -0.00000
  E(xc)   -1615.79057 -1615.79061 -1617.35517    -0.00003     0.00000    -0.00000
  Local    -165.44850  -165.44852  1230.41916    -0.00030    -0.00003     0.00000
  n-local  -743.24608  -742.13840  -744.58450    -4.16535     0.49331     0.11469
  augment  1844.67748  1844.67749  1846.58218     0.00028     0.00000    -0.00000
  Kinetic  4007.14253  4009.23918  4024.99917     7.65352    -1.98635    -5.04435
  Fock        0.00000     0.00000     0.00000     0.00000     0.00000     0.00000
  -------------------------------------------------------------------------------------
  Total      -6.36719    -6.36718    -7.13840     0.00000     0.00000    -0.00000
  in kB     -33.77169   -33.77168   -37.86226     0.00000     0.00000    -0.00000
  external pressure =      -35.14 kB  Pullay stress =        0.00 kB


 VOLUME and BASIS-vectors are now :
 -----------------------------------------------------------------------------
  energy-cutoff  :      740.00
  volume of cell :      302.07
      direct lattice vectors                 reciprocal lattice vectors
     5.035100000  0.000000000  0.000000000     0.198605787  0.114665118  0.000000000
    -2.517550000  4.360524000  0.000000000     0.000000000  0.229330236  0.000000000
     0.000000000  0.000000000 13.758100000     0.000000000  0.000000000  0.072684455

  length of vectors
     5.035100000  5.035099558 13.758100000     0.229330216  0.229330236  0.072684455


 FORCES acting on ions
    electron-ion (+dipol)            ewald-force                    non-local-force                 convergence-correction
 -----------------------------------------------------------------------------------------------
   0.156E-03 0.366E-03 -.126E+03   -.101E-02 0.523E-03 0.128E+03   -.434E-18 -.173E-17 -.289E+01   -.494E-08 0.300E-08 -.221E-04
   -.402E-03 0.580E-03 0.126E+03   0.101E-02 -.523E-03 -.128E+03   0.737E-17 -.173E-17 0.289E+01   0.702E-08 -.382E-08 0.221E-04
   -.135E-03 0.533E-03 -.126E+03   0.314E-02 -.187E-02 0.128E+03   -.477E-17 -.477E-17 -.289E+01   0.124E-06 -.719E-07 -.159E-04
   -.328E-03 0.645E-03 -.126E+03   -.220E-02 0.121E-02 0.128E+03   -.607E-17 0.217E-17 -.289E+01   -.116E-06 0.668E-07 -.138E-04
   0.817E-04 0.301E-03 0.126E+03   0.220E-02 -.121E-02 -.128E+03   0.113E-16 -.217E-17 0.289E+01   0.118E-06 -.676E-07 0.138E-04
   -.111E-03 0.412E-03 0.126E+03   -.314E-02 0.187E-02 -.128E+03   0.997E-17 -.434E-18 0.289E+01   -.122E-06 0.711E-07 0.159E-04
   0.566E-03 -.105E-02 0.126E+03   0.964E-03 -.523E-03 -.128E+03   -.239E-17 -.173E-17 0.289E+01   0.767E-08 -.473E-08 0.221E-04
   0.104E-02 -.127E-02 -.126E+03   -.964E-03 0.523E-03 0.128E+03   -.304E-17 0.434E-18 -.289E+01   -.443E-08 0.188E-08 -.221E-04
   0.105E-02 -.133E-02 0.126E+03   0.215E-02 -.121E-02 -.128E+03   0.520E-17 0.000E+00 0.289E+01   0.119E-06 -.692E-07 0.138E-04
   0.750E-03 -.110E-02 -.126E+03   0.319E-02 -.187E-02 0.128E+03   -.325E-17 0.000E+00 -.289E+01   0.125E-06 -.723E-07 -.159E-04
   0.856E-03 -.121E-02 0.126E+03   -.319E-02 0.187E-02 -.128E+03   -.867E-18 -.867E-18 0.289E+01   -.122E-06 0.695E-07 0.159E-04
   0.557E-03 -.989E-03 -.126E+03   -.215E-02 0.121E-02 0.128E+03   -.260E-17 0.390E-17 -.289E+01   -.115E-06 0.664E-07 -.138E-04
   -.424E+02 -.134E-02 0.216E-03   0.418E+02 0.106E-02 -.470E-03   0.673E+00 0.178E-17 0.401E-17   -.245E-04 0.289E-07 -.268E-08
   0.424E+02 -.866E-04 -.337E-03   -.418E+02 -.106E-02 0.470E-03   -.673E+00 -.867E-18 -.190E-17   0.245E-04 -.309E-07 0.121E-08
   -.424E+02 -.320E-02 -.585E-02   0.418E+02 0.570E-03 -.997E-03   0.673E+00 -.331E-17 0.396E-17   -.245E-04 -.240E-07 -.188E-05
   -.424E+02 0.239E-02 0.545E-02   0.418E+02 -.163E-02 0.147E-02   0.673E+00 0.320E-17 0.282E-17   -.244E-04 -.790E-08 0.188E-05
   0.424E+02 -.382E-02 -.557E-02   -.418E+02 0.163E-02 -.147E-02   -.673E+00 0.332E-18 -.325E-17   0.244E-04 0.590E-08 -.188E-05
   0.424E+02 0.177E-02 0.572E-02   -.418E+02 -.570E-03 0.997E-03   -.673E+00 0.542E-19 -.325E-18   0.245E-04 0.220E-07 0.187E-05
   0.212E+02 -.367E+02 -.308E-03   -.209E+02 0.362E+02 0.438E-03   -.336E+00 0.582E+00 -.139E-16   0.123E-04 -.212E-04 0.119E-08
   -.212E+02 0.367E+02 0.195E-03   0.209E+02 -.362E+02 -.438E-03   0.336E+00 -.582E+00 -.113E-16   -.123E-04 0.212E-04 -.264E-08
   0.212E+02 -.367E+02 -.554E-02   -.209E+02 0.362E+02 -.150E-02   -.336E+00 0.582E+00 -.130E-16   0.122E-04 -.212E-04 -.188E-05
   0.212E+02 -.367E+02 0.575E-02   -.209E+02 0.362E+02 0.964E-03   -.336E+00 0.582E+00 -.607E-17   0.122E-04 -.212E-04 0.187E-05
   -.212E+02 0.367E+02 -.587E-02   0.209E+02 -.362E+02 -.964E-03   0.336E+00 -.582E+00 -.121E-16   -.122E-04 0.212E-04 -.188E-05
   -.212E+02 0.367E+02 0.543E-02   0.209E+02 -.362E+02 0.150E-02   0.336E+00 -.582E+00 -.260E-17   -.122E-04 0.212E-04 0.188E-05
   0.212E+02 0.367E+02 0.939E-04   -.209E+02 -.362E+02 0.322E-04   -.336E+00 -.582E+00 0.260E-17   0.122E-04 0.212E-04 0.146E-08
   -.212E+02 -.367E+02 0.144E-03   0.209E+02 0.362E+02 -.322E-04   0.336E+00 0.582E+00 0.304E-17   -.122E-04 -.212E-04 0.140E-08
   0.212E+02 0.367E+02 -.409E-02   -.209E+02 -.362E+02 -.303E-02   -.336E+00 -.582E+00 -.304E-17   0.123E-04 0.212E-04 -.188E-05
   -.212E+02 -.367E+02 -.404E-02   0.209E+02 0.362E+02 -.310E-02   0.336E+00 0.582E+00 0.477E-17   -.122E-04 -.212E-04 -.188E-05
   0.212E+02 0.367E+02 0.428E-02   -.209E+02 -.362E+02 0.310E-02   -.336E+00 -.582E+00 -.217E-17   0.122E-04 0.212E-04 0.188E-05
   -.212E+02 -.367E+02 0.433E-02   0.209E+02 0.362E+02 0.303E-02   0.336E+00 0.582E+00 0.781E-17   -.123E-04 -.212E-04 0.188E-05
 -----------------------------------------------------------------------------------------------
   0.150E-01 -.165E-01 -.112E-04   -.995E-13 -.995E-13 -.192E-12   -.389E-15 0.222E-15 -.407E-16   0.248E-07 -.189E-07 -.239E-09
 
 
 POSITION                                       TOTAL-FORCE (eV/Angst)
 -----------------------------------------------------------------------------------
      0.00000      0.00000      4.88853         0.000000      0.000000     -0.924823
      0.00000      0.00000      8.86957         0.000000      0.000000      0.924823
     -0.00000      2.90702      0.30250         0.000000      0.000000     -0.924823
      2.51755      1.45351      9.47456         0.000000      0.000000     -0.924823
     -0.00000      2.90702      4.28354         0.000000      0.000000      0.924823
      2.51755      1.45351     13.45560         0.000000      0.000000      0.924823
      0.00000      0.00000      1.99052         0.000000      0.000000      0.924823
      0.00000      0.00000     11.76758         0.000000      0.000000     -0.924823
     -0.00000      2.90702     11.16259         0.000000      0.000000      0.924823
     -0.00000      2.90702      7.18155         0.000000      0.000000     -0.924823
      2.51755      1.45351      6.57655         0.000000      0.000000      0.924823
      2.51755      1.45351      2.59551         0.000000      0.000000     -0.924823
      1.54165      0.00000      3.43953         0.081310      0.000000     -0.000000
      3.49345      0.00000     10.31858        -0.081310      0.000000     -0.000000
      1.54164      2.90702     12.61160         0.081310      0.000000     -0.000000
      4.05920      1.45351      8.02555         0.081310      0.000000     -0.000000
     -1.54165      2.90702      5.73255        -0.081310      0.000000     -0.000000
      0.97591      1.45351      1.14650        -0.081310      0.000000     -0.000000
     -0.77082      1.33511      3.43953        -0.040655      0.070416     -0.000000
     -1.74673      3.02542     10.31858         0.040655     -0.070416     -0.000000
     -0.77083      4.24212     12.61160        -0.040655      0.070416     -0.000000
      1.74673      2.78861      8.02555        -0.040655      0.070416     -0.000000
      0.77082      1.57191      5.73255         0.040655     -0.070416     -0.000000
      3.28838      0.11840      1.14650         0.040655     -0.070416     -0.000000
      1.74673      3.02542      3.43953        -0.040655     -0.070416     -0.000000
      0.77082      1.33511     10.31858         0.040655      0.070416     -0.000000
     -0.77083      1.57191     12.61160        -0.040655     -0.070416     -0.000000
      0.77082      4.24212      5.73255         0.040655      0.070416     -0.000000
      1.74673      0.11840      8.02555        -0.040655     -0.070416     -0.000000
      3.28838      2.78861      1.14650         0.040655      0.070416     -0.000000
 -----------------------------------------------------------------------------------
    total drift:                                0.014985     -0.016530     -0.000011


--------------------------------------------------------------------------------------------------------



  FREE ENERGIE OF THE ION-ELECTRON SYSTEM (eV)
  ---------------------------------------------------
  free  energy   TOTEN  =      -221.44563277 eV

  energy  without entropy=     -221.44563277  energy(sigma->0) =     -221.44563277
 


--------------------------------------------------------------------------------------------------------


    POTLOK:  cpu time    0.1434: real time    0.1438


--------------------------------------------------------------------------------------------------------


     LOOP+:  cpu time  610.4506: real time  612.0528
    4ORBIT:  cpu time    0.0000: real time    0.0000
 


 total charge     
 
# of ion       s       p       d       tot
------------------------------------------
    1        0.284   6.340   5.852  12.476
    2        0.284   6.340   5.855  12.478
    3        0.284   6.340   5.862  12.486
    4        0.284   6.340   5.852  12.475
    5        0.283   6.340   5.855  12.478
    6        0.284   6.340   5.865  12.489
    7        0.284   6.340   5.851  12.474
    8        0.284   6.340   5.853  12.477
    9        0.283   6.340   5.854  12.478
   10        0.283   6.340   5.868  12.492
   11        0.283   6.340   5.865  12.489
   12        0.283   6.340   5.857  12.480
   13        1.568   3.417   0.000   4.984
   14        1.568   3.416   0.000   4.984
   15        1.568   3.417   0.000   4.984
   16        1.568   3.418   0.000   4.985
   17        1.568   3.418   0.000   4.985
   18        1.568   3.417   0.000   4.984
   19        1.567   3.404   0.000   4.971
   20        1.567   3.404   0.000   4.971
   21        1.567   3.405   0.000   4.972
   22        1.567   3.405   0.000   4.972
   23        1.567   3.405   0.000   4.972
   24        1.567   3.405   0.000   4.972
   25        1.569   3.418   0.000   4.986
   26        1.569   3.417   0.000   4.986
   27        1.569   3.419   0.000   4.987
   28        1.569   3.420   0.000   4.989
   29        1.569   3.420   0.000   4.988
   30        1.569   3.419   0.000   4.988
--------------------------------------------------
tot         31.620 137.523  70.289 239.432
 


 magnetization (x)
 
# of ion       s       p       d       tot
------------------------------------------
    1        0.024   0.036   3.140   3.201
    2        0.024   0.036   3.137   3.198
    3        0.025   0.036   3.134   3.195
    4        0.025   0.036   3.140   3.200
    5        0.025   0.036   3.140   3.201
    6        0.025   0.036   3.132   3.192
    7        0.024   0.036   3.125   3.185
    8        0.024   0.036   3.122   3.182
    9        0.025   0.036   3.122   3.183
   10        0.025   0.036   3.116   3.177
   11        0.025   0.036   3.118   3.179
   12        0.025   0.036   3.122   3.183
   13        0.020   0.139   0.000   0.159
   14        0.020   0.139   0.000   0.159
   15        0.020   0.139   0.000   0.159
   16        0.020   0.140   0.000   0.160
   17        0.020   0.140   0.000   0.161
   18        0.020   0.139   0.000   0.160
   19        0.021   0.143   0.000   0.165
   20        0.021   0.143   0.000   0.164
   21        0.021   0.144   0.000   0.165
   22        0.021   0.144   0.000   0.165
   23        0.021   0.144   0.000   0.165
   24        0.021   0.144   0.000   0.165
   25        0.020   0.135   0.000   0.156
   26        0.020   0.135   0.000   0.155
   27        0.020   0.136   0.000   0.157
   28        0.020   0.137   0.000   0.158
   29        0.020   0.137   0.000   0.157
   30        0.020   0.137   0.000   0.157
--------------------------------------------------
tot          0.668   2.947  37.549  41.164
 
 BZINTS: Fermi energy:  6.181799;276.000000 electrons
         Band energy:***********;  BLOECHL correction: -0.032989

 total amount of memory used by VASP MPI-rank0   113121. kBytes
=======================================================================

   base      :      30000. kBytes
   nonlr-proj:       9289. kBytes
   fftplans  :       5408. kBytes
   grid      :      13615. kBytes
   one-center:        248. kBytes
   wavefun   :      54561. kBytes
 
  
  
 General timing and accounting informations for this job:
 ========================================================
  
                  Total CPU time used (sec):      619.986
                            User time (sec):      618.083
                          System time (sec):        1.902
                         Elapsed time (sec):      621.671
  
                   Maximum memory used (kb):      163748.
                   Average memory used (kb):           0.
  
                          Minor page faults:        74945
                          Major page faults:            0
                 Voluntary context switches:          324
