       N       E                     dE             d eps       ncg     rms          rms(c)
DAV:   1     0.187729795947E+03    0.18773E+03   -0.15993E+04  3576   0.166E+03
DAV:   2    -0.109752681072E+02   -0.19871E+03   -0.19076E+03  3408   0.358E+02
DAV:   3    -0.162279801561E+02   -0.52527E+01   -0.52435E+01  3756   0.667E+01
DAV:   4    -0.162689672905E+02   -0.40987E-01   -0.40991E-01  3756   0.549E+00
DAV:   5    -0.162696953213E+02   -0.72803E-03   -0.72806E-03  3804   0.682E-01    0.250E+01
DAV:   6    -0.164347324887E+02   -0.16504E+00   -0.74871E+00  3420   0.393E+01    0.692E+00
DAV:   7    -0.165056871655E+02   -0.70955E-01   -0.61150E-01  3396   0.936E+00    0.431E+00
DAV:   8    -0.165174769252E+02   -0.11790E-01   -0.14676E-02  3744   0.140E+00    0.137E+00
DAV:   9    -0.165100373322E+02    0.74396E-02   -0.52590E-03  3600   0.866E-01    0.336E-01
DAV:  10    -0.165099829094E+02    0.54423E-04   -0.21664E-03  3480   0.592E-01    0.437E-02
DAV:  11    -0.165100510428E+02   -0.68133E-04   -0.56569E-05  3552   0.646E-02    0.247E-02
DAV:  12    -0.165100580873E+02   -0.70445E-05   -0.44642E-06  3852   0.207E-02    0.947E-03
DAV:  13    -0.165100502712E+02    0.78160E-05   -0.16266E-06  3468   0.121E-02    0.146E-03
DAV:  14    -0.165100499647E+02    0.30656E-06   -0.92188E-08  2724   0.233E-03    0.675E-04
DAV:  15    -0.165100500999E+02   -0.13522E-06   -0.80079E-09  1716   0.938E-04    0.275E-04
DAV:  16    -0.165100498695E+02    0.23036E-06   -0.86510E-10  1716   0.277E-04    0.118E-04
DAV:  17    -0.165100499854E+02   -0.11592E-06   -0.18229E-10  1680   0.133E-04    0.300E-05
DAV:  18    -0.165100499818E+02    0.36043E-08   -0.23739E-11  1680   0.463E-05
   1 F= -.16510050E+02 E0= -.16510050E+02  d E =0.000000E+00  mag=     4.4059
