=========================================
SLURM_JOB_ID = 51754176
SLURM_JOB_NODELIST = lnode20
SLURM_GPUS = 
SLURM_CPUS_ON_NODE = 24
SLURM_JOB_PARTITION = lenovo
SLURM_TASK_PID = 625295
CUDA_VISIBLE_DEVICES = 
==========================================
 running on   24 total cores
 distrk:  each k-point on   24 cores,    1 groups
 distr:  one band on    4 cores,    6 groups
 using from now: INCAR     
 vasp.5.4.4.18Apr17-6-g9f103f2a35 (build Apr 28 2018 00:24:27) complex          
  
 POSCAR found type information on POSCAR  Fe
 POSCAR found :  1 types and       2 ions
 scaLAPACK will be used

 ----------------------------------------------------------------------------- 
|                                                                             |
|  ADVICE TO THIS USER RUNNING 'VASP/VAMP'   (HEAR YOUR MASTER'S VOICE ...):  |
|                                                                             |
|      You have a (more or less) 'small supercell' and for smaller cells      |
|      it is recommended  to use the reciprocal-space projection scheme!      |
|      The real space optimization is not  efficient for small cells and it   |
|      is also less accurate ...                                              |
|      Therefore set LREAL=.FALSE. in the  INCAR file                         |
|                                                                             |
 ----------------------------------------------------------------------------- 

 LDA part: xc-table for Pade appr. of Perdew
 POSCAR, INCAR and KPOINTS ok, starting setup
 FFT: planning ...
 WAVECAR not read
 entering main loop
       N       E                     dE             d eps       ncg     rms          rms(c)
DAV:   1     0.203064261794E+03    0.20306E+03   -0.17361E+04  3576   0.183E+03
DAV:   2    -0.103816743403E+02   -0.21345E+03   -0.20503E+03  3444   0.383E+02
DAV:   3    -0.162243826640E+02   -0.58427E+01   -0.58316E+01  3756   0.714E+01
DAV:   4    -0.162717232524E+02   -0.47341E-01   -0.47343E-01  3888   0.602E+00
DAV:   5    -0.162726196239E+02   -0.89637E-03   -0.89641E-03  3756   0.769E-01    0.250E+01
DAV:   6    -0.164545464144E+02   -0.18193E+00   -0.74948E+00  3420   0.395E+01    0.690E+00
DAV:   7    -0.165106578723E+02   -0.56111E-01   -0.61260E-01  3408   0.956E+00    0.430E+00
DAV:   8    -0.165206207399E+02   -0.99629E-02   -0.14814E-02  3720   0.144E+00    0.137E+00
DAV:   9    -0.165124221813E+02    0.81986E-02   -0.51151E-03  3636   0.865E-01    0.337E-01
DAV:  10    -0.165122480856E+02    0.17410E-03   -0.22496E-03  3480   0.608E-01    0.440E-02
DAV:  11    -0.165123072060E+02   -0.59120E-04   -0.47829E-05  3552   0.634E-02    0.242E-02
DAV:  12    -0.165123151876E+02   -0.79817E-05   -0.47205E-06  3888   0.216E-02    0.955E-03
DAV:  13    -0.165123084195E+02    0.67681E-05   -0.13259E-06  3480   0.112E-02    0.240E-03
DAV:  14    -0.165123069312E+02    0.14883E-05   -0.14844E-07  2664   0.319E-03    0.605E-04
DAV:  15    -0.165123069461E+02   -0.14928E-07   -0.11617E-08  1740   0.110E-03
   1 F= -.16512307E+02 E0= -.16512307E+02  d E =0.000000E+00  mag=     4.4055
