 vasp.5.4.4.18Apr17-6-g9f103f2a35 (build Apr 28 2018 00:24:27) complex          
  
 executed on             LinuxIFC date 2021.09.07  01:11:27
 running on   24 total cores
 distrk:  each k-point on   24 cores,    1 groups
 distr:  one band on NCORES_PER_BAND=   4 cores,    6 groups


--------------------------------------------------------------------------------------------------------


 INCAR:
 POTCAR:    PAW_PBE Fe_pv 02Aug2007               
 POTCAR:    PAW_PBE Fe_pv 02Aug2007               
   VRHFIN =Fe:  3pd7s1                                                          
   LEXCH  = PE                                                                  
   EATOM  =  2457.4239 eV,  180.6156 Ry                                         
                                                                                
   TITEL  = PAW_PBE Fe_pv 02Aug2007                                             
   LULTRA =        F    use ultrasoft PP ?                                      
   IUNSCR =        1    unscreen: 0-lin 1-nonlin 2-no                           
   RPACOR =    1.750    partial core radius                                     
   POMASS =   55.847; ZVAL   =   14.000    mass and valenz                      
   RCORE  =    2.200    outmost cutoff radius                                   
   RWIGS  =    2.200; RWIGS  =    1.164    wigner-seitz radius (au A)           
   ENMAX  =  293.238; ENMIN  =  219.928 eV                                      
   ICORE  =        3    local potential                                         
   LCOR   =        T    correct aug charges                                     
   LPAW   =        T    paw PP                                                  
   EAUG   =  578.342                                                            
   DEXC   =    0.000                                                            
   RMAX   =    2.249    core radius for proj-oper                               
   RAUG   =    1.300    factor for augmentation sphere                          
   RDEP   =    2.296    radius for radial grids                                 
   RDEPT  =    1.766    core radius for aug-charge                              
                                                                                
   Atomic configuration                                                         
    8 entries                                                                   
     n  l   j            E        occ.                                          
     1  0  0.50     -6993.8440   2.0000                                         
     2  0  0.50      -814.6047   2.0000                                         
     2  1  1.50      -693.3689   6.0000                                         
     3  0  0.50       -89.4732   2.0000                                         
     3  1  1.50       -55.6373   6.0000                                         
     3  2  2.50        -3.8151   7.0000                                         
     4  0  0.50        -4.2551   1.0000                                         
     4  3  2.50        -1.3606   0.0000                                         
   Description                                                                  
     l       E           TYP  RCUT    TYP  RCUT                                 
     1    -55.6372668     23  2.000                                             
     1     -5.4423304     23  2.000                                             
     2     -3.8151096     23  2.200                                             
     2     -5.1756922     23  2.200                                             
     0     -4.2550951     23  2.200                                             
     0     27.2116520     23  2.200                                             
     3     -1.3605826     23  2.200                                             
  local pseudopotential read in
  partial core-charges read in
  partial kinetic energy density read in
  atomic valenz-charges read in
  non local Contribution for L=           1  read in
    real space projection operators read in
  non local Contribution for L=           1  read in
    real space projection operators read in
  non local Contribution for L=           2  read in
    real space projection operators read in
  non local Contribution for L=           2  read in
    real space projection operators read in
  non local Contribution for L=           0  read in
    real space projection operators read in
  non local Contribution for L=           0  read in
    real space projection operators read in
    PAW grid and wavefunctions read in
 
   number of l-projection  operators is LMAX  =           6
   number of lm-projection operators is LMMAX =          18
 

 ----------------------------------------------------------------------------- 
|                                                                             |
|  ADVICE TO THIS USER RUNNING 'VASP/VAMP'   (HEAR YOUR MASTER'S VOICE ...):  |
|                                                                             |
|      You have a (more or less) 'small supercell' and for smaller cells      |
|      it is recommended  to use the reciprocal-space projection scheme!      |
|      The real space optimization is not  efficient for small cells and it   |
|      is also less accurate ...                                              |
|      Therefore set LREAL=.FALSE. in the  INCAR file                         |
|                                                                             |
 ----------------------------------------------------------------------------- 

 Optimization of the real space projectors (new method)

 maximal supplied QI-value         = 17.01
 optimisation between [QCUT,QGAM] = [ 11.40, 22.79] = [ 36.36,145.44] Ry 
 Optimized for a Real-space Cutoff    1.47 Angstroem

   l    n(q)    QCUT    max X(q) W(low)/X(q) W(high)/X(q)  e(spline) 
   1     10    11.395     4.267    0.90E-04    0.11E-03    0.18E-06
   1     10    11.395     5.750    0.14E-03    0.15E-03    0.25E-06
   2      9    11.395    53.656    0.13E-03    0.36E-04    0.15E-06
   2      9    11.395    49.521    0.14E-03    0.36E-04    0.15E-06
   0     10    11.395    31.246    0.58E-04    0.17E-05    0.98E-07
   0     10    11.395    12.201    0.41E-04    0.11E-05    0.82E-07
  PAW_PBE Fe_pv 02Aug2007               :
 energy of atom  1       EATOM=-2457.4239
 kinetic energy error for atom=    0.0069 (will be added to EATOM!!)
 
 
 POSCAR: Fe2                                     
  positions in direct lattice
  No initial velocities read in
 exchange correlation table for  LEXCH =        8
   RHO(1)=    0.500       N(1)  =     2000
   RHO(2)=  100.500       N(2)  =     4000
 


--------------------------------------------------------------------------------------------------------


 ion  position               nearest neighbor table
   1  0.000  0.000  0.000-   2 2.46   2 2.46   2 2.46   2 2.46   2 2.46   2 2.46   2 2.46   2 2.46

   2  0.500  0.500  0.500-   1 2.46   1 2.46   1 2.46   1 2.46   1 2.46   1 2.46   1 2.46   1 2.46

 
  LATTYP: Found a simple cubic cell.
 ALAT       =     2.8400520000
  
  Lattice vectors:
  
 A1 = (   2.8400520000,   0.0000000000,   0.0000000000)
 A2 = (   0.0000000000,   2.8400520000,   0.0000000000)
 A3 = (   0.0000000000,   0.0000000000,   2.8400520000)


Analysis of symmetry for initial positions (statically):
=====================================================================
 Subroutine PRICEL returns following result:
 
  LATTYP: Found a body centered cubic cell.
 ALAT       =     2.8400520000
  
  Lattice vectors:
  
 A1 = (   1.4200260000,   1.4200260000,   1.4200260000)
 A2 = (   1.4200260000,  -1.4200260000,  -1.4200260000)
 A3 = (  -1.4200260000,   1.4200260000,  -1.4200260000)
 
   2 primitive cells build up your supercell.
 

 Routine SETGRP: Setting up the symmetry group for a 
 simple cubic supercell.


 Subroutine GETGRP returns: Found 48 space group operations
 (whereof 48 operations were pure point group operations)
 out of a pool of 48 trial point group operations.


The static configuration has the point symmetry O_h .


Analysis of symmetry for dynamics (positions and initial velocities):
=====================================================================
 Subroutine PRICEL returns following result:
 
  LATTYP: Found a body centered cubic cell.
 ALAT       =     2.8400520000
  
  Lattice vectors:
  
 A1 = (   1.4200260000,   1.4200260000,   1.4200260000)
 A2 = (   1.4200260000,  -1.4200260000,  -1.4200260000)
 A3 = (  -1.4200260000,   1.4200260000,  -1.4200260000)
 
   2 primitive cells build up your supercell.
 

 Routine SETGRP: Setting up the symmetry group for a 
 simple cubic supercell.


 Subroutine GETGRP returns: Found 48 space group operations
 (whereof 48 operations were pure point group operations)
 out of a pool of 48 trial point group operations.


The dynamic configuration has the point symmetry O_h .


Analysis of structural, dynamic, and magnetic symmetry:
=====================================================================
 Subroutine PRICEL returns following result:
 
  LATTYP: Found a body centered cubic cell.
 ALAT       =     2.8400520000
  
  Lattice vectors:
  
 A1 = (   1.4200260000,   1.4200260000,   1.4200260000)
 A2 = (   1.4200260000,  -1.4200260000,  -1.4200260000)
 A3 = (  -1.4200260000,   1.4200260000,  -1.4200260000)
 
   2 primitive cells build up your supercell.
 

 Routine SETGRP: Setting up the symmetry group for a 
 simple cubic supercell.


 Subroutine GETGRP returns: Found 48 space group operations
 (whereof 48 operations were pure point group operations)
 out of a pool of 48 trial point group operations.


The magnetic configuration has the point symmetry O_h .


 Subroutine INISYM returns: Found 48 space group operations
 (whereof 48 operations are pure point group operations),
 and found     2 'primitive' translations

 
 
 KPOINTS: pymatgen with grid density = 2166 / numb

Automatic generation of k-mesh.
Space group operators:
 irot       det(A)        alpha          n_x          n_y          n_z        tau_x        tau_y        tau_z
    1     1.000000     0.000000     1.000000     0.000000     0.000000     0.000000     0.000000     0.000000
    2    -1.000000     0.000000     1.000000     0.000000     0.000000     0.000000     0.000000     0.000000
    3     1.000000   120.000000    -0.577350    -0.577350    -0.577350     0.000000     0.000000     0.000000
    4    -1.000000   120.000000    -0.577350    -0.577350    -0.577350     0.000000     0.000000     0.000000
    5     1.000000   120.000000     0.577350     0.577350     0.577350     0.000000     0.000000     0.000000
    6    -1.000000   120.000000     0.577350     0.577350     0.577350     0.000000     0.000000     0.000000
    7     1.000000    90.000000     0.000000     0.000000    -1.000000     0.000000     0.000000     0.000000
    8    -1.000000    90.000000     0.000000     0.000000    -1.000000     0.000000     0.000000     0.000000
    9     1.000000   180.000000     0.000000     0.707107     0.707107     0.000000     0.000000     0.000000
   10    -1.000000   180.000000     0.000000     0.707107     0.707107     0.000000     0.000000     0.000000
   11     1.000000    90.000000     0.000000     1.000000     0.000000     0.000000     0.000000     0.000000
   12    -1.000000    90.000000     0.000000     1.000000     0.000000     0.000000     0.000000     0.000000
   13     1.000000   180.000000     0.000000     0.000000     1.000000     0.000000     0.000000     0.000000
   14    -1.000000   180.000000     0.000000     0.000000     1.000000     0.000000     0.000000     0.000000
   15     1.000000   120.000000    -0.577350     0.577350     0.577350     0.000000     0.000000     0.000000
   16    -1.000000   120.000000    -0.577350     0.577350     0.577350     0.000000     0.000000     0.000000
   17     1.000000   120.000000    -0.577350     0.577350    -0.577350     0.000000     0.000000     0.000000
   18    -1.000000   120.000000    -0.577350     0.577350    -0.577350     0.000000     0.000000     0.000000
   19     1.000000    90.000000     0.000000     0.000000     1.000000     0.000000     0.000000     0.000000
   20    -1.000000    90.000000     0.000000     0.000000     1.000000     0.000000     0.000000     0.000000
   21     1.000000    90.000000    -1.000000     0.000000     0.000000     0.000000     0.000000     0.000000
   22    -1.000000    90.000000    -1.000000     0.000000     0.000000     0.000000     0.000000     0.000000
   23     1.000000   180.000000     0.707107     0.000000     0.707107     0.000000     0.000000     0.000000
   24    -1.000000   180.000000     0.707107     0.000000     0.707107     0.000000     0.000000     0.000000
   25     1.000000   120.000000     0.577350    -0.577350     0.577350     0.000000     0.000000     0.000000
   26    -1.000000   120.000000     0.577350    -0.577350     0.577350     0.000000     0.000000     0.000000
   27     1.000000   120.000000    -0.577350    -0.577350     0.577350     0.000000     0.000000     0.000000
   28    -1.000000   120.000000    -0.577350    -0.577350     0.577350     0.000000     0.000000     0.000000
   29     1.000000   180.000000     1.000000     0.000000     0.000000     0.000000     0.000000     0.000000
   30    -1.000000   180.000000     1.000000     0.000000     0.000000     0.000000     0.000000     0.000000
   31     1.000000    90.000000     0.000000    -1.000000     0.000000     0.000000     0.000000     0.000000
   32    -1.000000    90.000000     0.000000    -1.000000     0.000000     0.000000     0.000000     0.000000
   33     1.000000   180.000000     0.707107     0.707107     0.000000     0.000000     0.000000     0.000000
   34    -1.000000   180.000000     0.707107     0.707107     0.000000     0.000000     0.000000     0.000000
   35     1.000000    90.000000     1.000000     0.000000     0.000000     0.000000     0.000000     0.000000
   36    -1.000000    90.000000     1.000000     0.000000     0.000000     0.000000     0.000000     0.000000
   37     1.000000   120.000000     0.577350    -0.577350    -0.577350     0.000000     0.000000     0.000000
   38    -1.000000   120.000000     0.577350    -0.577350    -0.577350     0.000000     0.000000     0.000000
   39     1.000000   180.000000     0.000000     1.000000     0.000000     0.000000     0.000000     0.000000
   40    -1.000000   180.000000     0.000000     1.000000     0.000000     0.000000     0.000000     0.000000
   41     1.000000   120.000000     0.577350     0.577350    -0.577350     0.000000     0.000000     0.000000
   42    -1.000000   120.000000     0.577350     0.577350    -0.577350     0.000000     0.000000     0.000000
   43     1.000000   180.000000     0.000000    -0.707107     0.707107     0.000000     0.000000     0.000000
   44    -1.000000   180.000000     0.000000    -0.707107     0.707107     0.000000     0.000000     0.000000
   45     1.000000   180.000000     0.707107    -0.707107     0.000000     0.000000     0.000000     0.000000
   46    -1.000000   180.000000     0.707107    -0.707107     0.000000     0.000000     0.000000     0.000000
   47     1.000000   180.000000     0.707107     0.000000    -0.707107     0.000000     0.000000     0.000000
   48    -1.000000   180.000000     0.707107     0.000000    -0.707107     0.000000     0.000000     0.000000
 
 Subroutine IBZKPT returns following result:
 ===========================================
 
 Found     35 irreducible k-points:
 
 Following reciprocal coordinates:
            Coordinates               Weight
  0.050000  0.050000  0.050000      8.000000
  0.150000  0.050000  0.050000     24.000000
  0.250000  0.050000  0.050000     24.000000
  0.350000  0.050000  0.050000     24.000000
  0.450000  0.050000  0.050000     24.000000
  0.150000  0.150000  0.050000     24.000000
  0.250000  0.150000  0.050000     48.000000
  0.350000  0.150000  0.050000     48.000000
  0.450000  0.150000  0.050000     48.000000
  0.250000  0.250000  0.050000     24.000000
  0.350000  0.250000  0.050000     48.000000
  0.450000  0.250000  0.050000     48.000000
  0.350000  0.350000  0.050000     24.000000
  0.450000  0.350000  0.050000     48.000000
  0.450000  0.450000  0.050000     24.000000
  0.150000  0.150000  0.150000      8.000000
  0.250000  0.150000  0.150000     24.000000
  0.350000  0.150000  0.150000     24.000000
  0.450000  0.150000  0.150000     24.000000
  0.250000  0.250000  0.150000     24.000000
  0.350000  0.250000  0.150000     48.000000
  0.450000  0.250000  0.150000     48.000000
  0.350000  0.350000  0.150000     24.000000
  0.450000  0.350000  0.150000     48.000000
  0.450000  0.450000  0.150000     24.000000
  0.250000  0.250000  0.250000      8.000000
  0.350000  0.250000  0.250000     24.000000
  0.450000  0.250000  0.250000     24.000000
  0.350000  0.350000  0.250000     24.000000
  0.450000  0.350000  0.250000     48.000000
  0.450000  0.450000  0.250000     24.000000
  0.350000  0.350000  0.350000      8.000000
  0.450000  0.350000  0.350000     24.000000
  0.450000  0.450000  0.350000     24.000000
  0.450000  0.450000  0.450000      8.000000
 
 Following cartesian coordinates:
            Coordinates               Weight
  0.017605  0.017605  0.017605      8.000000
  0.052816  0.017605  0.017605     24.000000
  0.088027  0.017605  0.017605     24.000000
  0.123237  0.017605  0.017605     24.000000
  0.158448  0.017605  0.017605     24.000000
  0.052816  0.052816  0.017605     24.000000
  0.088027  0.052816  0.017605     48.000000
  0.123237  0.052816  0.017605     48.000000
  0.158448  0.052816  0.017605     48.000000
  0.088027  0.088027  0.017605     24.000000
  0.123237  0.088027  0.017605     48.000000
  0.158448  0.088027  0.017605     48.000000
  0.123237  0.123237  0.017605     24.000000
  0.158448  0.123237  0.017605     48.000000
  0.158448  0.158448  0.017605     24.000000
  0.052816  0.052816  0.052816      8.000000
  0.088027  0.052816  0.052816     24.000000
  0.123237  0.052816  0.052816     24.000000
  0.158448  0.052816  0.052816     24.000000
  0.088027  0.088027  0.052816     24.000000
  0.123237  0.088027  0.052816     48.000000
  0.158448  0.088027  0.052816     48.000000
  0.123237  0.123237  0.052816     24.000000
  0.158448  0.123237  0.052816     48.000000
  0.158448  0.158448  0.052816     24.000000
  0.088027  0.088027  0.088027      8.000000
  0.123237  0.088027  0.088027     24.000000
  0.158448  0.088027  0.088027     24.000000
  0.123237  0.123237  0.088027     24.000000
  0.158448  0.123237  0.088027     48.000000
  0.158448  0.158448  0.088027     24.000000
  0.123237  0.123237  0.123237      8.000000
  0.158448  0.123237  0.123237     24.000000
  0.158448  0.158448  0.123237     24.000000
  0.158448  0.158448  0.158448      8.000000
 
 TETIRR: Found    466 inequivalent tetrahedra from     6000


--------------------------------------------------------------------------------------------------------




 Dimension of arrays:
   k-points           NKPTS =     35   k-points in BZ     NKDIM =     35   number of bands    NBANDS=     24
   number of dos      NEDOS =    301   number of ions     NIONS =      2
   non local maximal  LDIM  =      6   non local SUM 2l+1 LMDIM =     18
   total plane-waves  NPLWV =  13824
   max r-space proj   IRMAX =   8151   max aug-charges    IRDMAX=  18070
   dimension x,y,z NGX =    24 NGY =   24 NGZ =   24
   dimension x,y,z NGXF=    48 NGYF=   48 NGZF=   48
   support grid    NGXF=    48 NGYF=   48 NGZF=   48
   ions per type =               2
   NGX,Y,Z   is equivalent  to a cutoff of  14.05, 14.05, 14.05 a.u.
   NGXF,Y,Z  is equivalent  to a cutoff of  28.10, 28.10, 28.10 a.u.

 SYSTEM =  unknown system                          
 POSCAR =  Fe2                                     

 Startparameter for this run:
   NWRITE =      2    write-flag & timer
   PREC   = accura    normal or accurate (medium, high low for compatibility)
   ISTART =      0    job   : 0-new  1-cont  2-samecut
   ICHARG =      2    charge: 1-file 2-atom 10-const
   ISPIN  =      2    spin polarized calculation?
   LNONCOLLINEAR =      F non collinear calculations
   LSORBIT =      F    spin-orbit coupling
   INIWAV =      1    electr: 0-lowe 1-rand  2-diag
   LASPH  =      F    aspherical Exc in radial PAW
   METAGGA=      F    non-selfconsistent MetaGGA calc.

 Electronic Relaxation 1
   ENCUT  =  500.0 eV  36.75 Ry    6.06 a.u.   5.18  5.18  5.18*2*pi/ulx,y,z
   ENINI  =  500.0     initial cutoff
   ENAUG  =  578.3 eV  augmentation charge cutoff
   NELM   =    100;   NELMIN=  2; NELMDL= -5     # of ELM steps 
   EDIFF  = 0.1E-06   stopping-criterion for ELM
   LREAL  =      T    real-space projection
   NLSPLINE    = F    spline interpolate recip. space projectors
   LCOMPAT=      F    compatible to vasp.4.4
   GGA_COMPAT  = T    GGA compatible to vasp.4.4-vasp.4.6
   LMAXPAW     = -100 max onsite density
   LMAXMIX     =    2 max onsite mixed and CHGCAR
   VOSKOWN=      0    Vosko Wilk Nusair interpolation
   ROPT   =   -0.00025
 Ionic relaxation
   EDIFFG = 0.1E-05   stopping-criterion for IOM
   NSW    =      0    number of steps for IOM
   NBLOCK =      1;   KBLOCK =      1    inner block; outer block 
   IBRION =     -1    ionic relax: 0-MD 1-quasi-New 2-CG
   NFREE  =      0    steps in history (QN), initial steepest desc. (CG)
   ISIF   =      3    stress and relaxation
   IWAVPR =     10    prediction:  0-non 1-charg 2-wave 3-comb
   ISYM   =      2    0-nonsym 1-usesym 2-fastsym
   LCORR  =      T    Harris-Foulkes like correction to forces

   POTIM  = 0.5000    time-step for ionic-motion
   TEIN   =    0.0    initial temperature
   TEBEG  =    0.0;   TEEND  =   0.0 temperature during run
   SMASS  =  -3.00    Nose mass-parameter (am)
   estimated Nose-frequenzy (Omega)   =  0.10E-29 period in steps =****** mass=  -0.184E-27a.u.
   SCALEE = 1.0000    scale energy and forces
   NPACO  =    256;   APACO  = 16.0  distance and # of slots for P.C.
   PSTRESS=    0.0 pullay stress

  Mass of Ions in am
   POMASS =  55.85
  Ionic Valenz
   ZVAL   =  14.00
  Atomic Wigner-Seitz radii
   RWIGS  =  -1.00
  virtual crystal weights 
   VCA    =   1.00
   NELECT =      28.0000    total number of electrons
   NUPDOWN=      -1.0000    fix difference up-down

 DOS related values:
   EMIN   =  10.00;   EMAX   =-10.00  energy-range for DOS
   EFERMI =   0.00
   ISMEAR =    -5;   SIGMA  =   0.05  broadening in eV -4-tet -1-fermi 0-gaus

 Electronic relaxation 2 (details)
   IALGO  =     38    algorithm
   LDIAG  =      T    sub-space diagonalisation (order eigenvalues)
   LSUBROT=      F    optimize rotation matrix (better conditioning)
   TURBO    =      0    0=normal 1=particle mesh
   IRESTART =      0    0=no restart 2=restart with 2 vectors
   NREBOOT  =      0    no. of reboots
   NMIN     =      0    reboot dimension
   EREF     =   0.00    reference energy to select bands
   IMIX   =      4    mixing-type and parameters
     AMIX     =   0.40;   BMIX     =  1.00
     AMIX_MAG =   1.60;   BMIX_MAG =  1.00
     AMIN     =   0.10
     WC   =   100.;   INIMIX=   1;  MIXPRE=   1;  MAXMIX= -45

 Intra band minimization:
   WEIMIN = 0.0000     energy-eigenvalue tresh-hold
   EBREAK =  0.10E-08  absolut break condition
   DEPER  =   0.30     relativ break condition  

   TIME   =   0.40     timestep for ELM

  volume/ion in A,a.u.               =      11.45        77.29
  Fermi-wavevector in a.u.,A,eV,Ry     =   1.750389  3.307755 41.686364  3.063861
  Thomas-Fermi vector in A             =   2.821117
 
 Write flags
   LWAVE        =      F    write WAVECAR
   LDOWNSAMPLE  =      F    k-point downsampling of WAVECAR
   LCHARG       =      F    write CHGCAR
   LVTOT        =      F    write LOCPOT, total local potential
   LVHAR        =      F    write LOCPOT, Hartree potential only
   LELF         =      F    write electronic localiz. function (ELF)
   LORBIT       =     11    0 simple, 1 ext, 2 COOP (PROOUT), +10 PAW based schemes


 Dipole corrections
   LMONO  =      F    monopole corrections only (constant potential shift)
   LDIPOL =      F    correct potential (dipole corrections)
   IDIPOL =      0    1-x, 2-y, 3-z, 4-all directions 
   EPSILON=  1.0000000 bulk dielectric constant

 Exchange correlation treatment:
   GGA     =    --    GGA type
   LEXCH   =     8    internal setting for exchange type
   VOSKOWN=      0    Vosko Wilk Nusair interpolation
   LHFCALC =     F    Hartree Fock is set to
   LHFONE  =     F    Hartree Fock one center treatment
   AEXX    =    0.0000 exact exchange contribution

 Linear response parameters
   LEPSILON=     F    determine dielectric tensor
   LRPA    =     F    only Hartree local field effects (RPA)
   LNABLA  =     F    use nabla operator in PAW spheres
   LVEL    =     F    velocity operator in full k-point grid
   LINTERFAST=   F  fast interpolation
   KINTER  =     0    interpolate to denser k-point grid
   CSHIFT  =0.1000    complex shift for real part using Kramers Kronig
   OMEGAMAX=  -1.0    maximum frequency
   DEG_THRESHOLD= 0.2000000E-02 threshold for treating states as degnerate
   RTIME   =   -0.100 relaxation time in fs
  (WPLASMAI=    0.000 imaginary part of plasma frequency in eV, 0.658/RTIME)
   DFIELD  = 0.0000000 0.0000000 0.0000000 field for delta impulse in time
 
 Orbital magnetization related:
   ORBITALMAG=     F  switch on orbital magnetization
   LCHIMAG   =     F  perturbation theory with respect to B field
   DQ        =  0.001000  dq finite difference perturbation B field
   LLRAUG    =     F  two centre corrections for induced B field



--------------------------------------------------------------------------------------------------------


 Static calculation
 charge density and potential will be updated during run
 spin polarized calculation
 Variant of blocked Davidson
 Davidson routine will perform the subspace rotation
 perform sub-space diagonalisation
    after iterative eigenvector-optimisation
 modified Broyden-mixing scheme, WC =      100.0
 initial mixing is a Kerker type mixing with AMIX =  0.4000 and BMIX =      1.0000
 Hartree-type preconditioning will be used
 using additional bands           10
 real space projection scheme for non local part
 use partial core corrections
 calculate Harris-corrections to forces 
   (improved forces if not selfconsistent)
 use gradient corrections 
 use of overlap-Matrix (Vanderbilt PP)
 Fermi weights with tetrahedron method with Bloechl corrections


--------------------------------------------------------------------------------------------------------


  energy-cutoff  :      500.00
  volume of cell :       22.91
      direct lattice vectors                 reciprocal lattice vectors
     2.840052000  0.000000000  0.000000000     0.352106229  0.000000000  0.000000000
     0.000000000  2.840052000  0.000000000     0.000000000  0.352106229  0.000000000
     0.000000000  0.000000000  2.840052000     0.000000000  0.000000000  0.352106229

  length of vectors
     2.840052000  2.840052000  2.840052000     0.352106229  0.352106229  0.352106229


 
 k-points in units of 2pi/SCALE and weight: pymatgen with grid density = 2166 / numb
   0.01760531  0.01760531  0.01760531       0.008
   0.05281593  0.01760531  0.01760531       0.024
   0.08802656  0.01760531  0.01760531       0.024
   0.12323718  0.01760531  0.01760531       0.024
   0.15844780  0.01760531  0.01760531       0.024
   0.05281593  0.05281593  0.01760531       0.024
   0.08802656  0.05281593  0.01760531       0.048
   0.12323718  0.05281593  0.01760531       0.048
   0.15844780  0.05281593  0.01760531       0.048
   0.08802656  0.08802656  0.01760531       0.024
   0.12323718  0.08802656  0.01760531       0.048
   0.15844780  0.08802656  0.01760531       0.048
   0.12323718  0.12323718  0.01760531       0.024
   0.15844780  0.12323718  0.01760531       0.048
   0.15844780  0.15844780  0.01760531       0.024
   0.05281593  0.05281593  0.05281593       0.008
   0.08802656  0.05281593  0.05281593       0.024
   0.12323718  0.05281593  0.05281593       0.024
   0.15844780  0.05281593  0.05281593       0.024
   0.08802656  0.08802656  0.05281593       0.024
   0.12323718  0.08802656  0.05281593       0.048
   0.15844780  0.08802656  0.05281593       0.048
   0.12323718  0.12323718  0.05281593       0.024
   0.15844780  0.12323718  0.05281593       0.048
   0.15844780  0.15844780  0.05281593       0.024
   0.08802656  0.08802656  0.08802656       0.008
   0.12323718  0.08802656  0.08802656       0.024
   0.15844780  0.08802656  0.08802656       0.024
   0.12323718  0.12323718  0.08802656       0.024
   0.15844780  0.12323718  0.08802656       0.048
   0.15844780  0.15844780  0.08802656       0.024
   0.12323718  0.12323718  0.12323718       0.008
   0.15844780  0.12323718  0.12323718       0.024
   0.15844780  0.15844780  0.12323718       0.024
   0.15844780  0.15844780  0.15844780       0.008
 
 k-points in reciprocal lattice and weights: pymatgen with grid density = 2166 / numb
   0.05000000  0.05000000  0.05000000       0.008
   0.15000000  0.05000000  0.05000000       0.024
   0.25000000  0.05000000  0.05000000       0.024
   0.35000000  0.05000000  0.05000000       0.024
   0.45000000  0.05000000  0.05000000       0.024
   0.15000000  0.15000000  0.05000000       0.024
   0.25000000  0.15000000  0.05000000       0.048
   0.35000000  0.15000000  0.05000000       0.048
   0.45000000  0.15000000  0.05000000       0.048
   0.25000000  0.25000000  0.05000000       0.024
   0.35000000  0.25000000  0.05000000       0.048
   0.45000000  0.25000000  0.05000000       0.048
   0.35000000  0.35000000  0.05000000       0.024
   0.45000000  0.35000000  0.05000000       0.048
   0.45000000  0.45000000  0.05000000       0.024
   0.15000000  0.15000000  0.15000000       0.008
   0.25000000  0.15000000  0.15000000       0.024
   0.35000000  0.15000000  0.15000000       0.024
   0.45000000  0.15000000  0.15000000       0.024
   0.25000000  0.25000000  0.15000000       0.024
   0.35000000  0.25000000  0.15000000       0.048
   0.45000000  0.25000000  0.15000000       0.048
   0.35000000  0.35000000  0.15000000       0.024
   0.45000000  0.35000000  0.15000000       0.048
   0.45000000  0.45000000  0.15000000       0.024
   0.25000000  0.25000000  0.25000000       0.008
   0.35000000  0.25000000  0.25000000       0.024
   0.45000000  0.25000000  0.25000000       0.024
   0.35000000  0.35000000  0.25000000       0.024
   0.45000000  0.35000000  0.25000000       0.048
   0.45000000  0.45000000  0.25000000       0.024
   0.35000000  0.35000000  0.35000000       0.008
   0.45000000  0.35000000  0.35000000       0.024
   0.45000000  0.45000000  0.35000000       0.024
   0.45000000  0.45000000  0.45000000       0.008
 
 position of ions in fractional coordinates (direct lattice) 
   0.00000000  0.00000000  0.00000000
   0.50000000  0.50000000  0.50000000
 
 position of ions in cartesian coordinates  (Angst):
   0.00000000  0.00000000  0.00000000
   1.42002600  1.42002600  1.42002600
 


--------------------------------------------------------------------------------------------------------


 k-point  1 :   0.0500 0.0500 0.0500  plane waves:     603
 k-point  2 :   0.1500 0.0500 0.0500  plane waves:     581
 k-point  3 :   0.2500 0.0500 0.0500  plane waves:     576
 k-point  4 :   0.3500 0.0500 0.0500  plane waves:     579
 k-point  5 :   0.4500 0.0500 0.0500  plane waves:     588
 k-point  6 :   0.1500 0.1500 0.0500  plane waves:     576
 k-point  7 :   0.2500 0.1500 0.0500  plane waves:     580
 k-point  8 :   0.3500 0.1500 0.0500  plane waves:     580
 k-point  9 :   0.4500 0.1500 0.0500  plane waves:     585
 k-point 10 :   0.2500 0.2500 0.0500  plane waves:     577
 k-point 11 :   0.3500 0.2500 0.0500  plane waves:     579
 k-point 12 :   0.4500 0.2500 0.0500  plane waves:     581
 k-point 13 :   0.3500 0.3500 0.0500  plane waves:     577
 k-point 14 :   0.4500 0.3500 0.0500  plane waves:     578
 k-point 15 :   0.4500 0.4500 0.0500  plane waves:     574
 k-point 16 :   0.1500 0.1500 0.1500  plane waves:     579
 k-point 17 :   0.2500 0.1500 0.1500  plane waves:     577
 k-point 18 :   0.3500 0.1500 0.1500  plane waves:     578
 k-point 19 :   0.4500 0.1500 0.1500  plane waves:     579
 k-point 20 :   0.2500 0.2500 0.1500  plane waves:     580
 k-point 21 :   0.3500 0.2500 0.1500  plane waves:     584
 k-point 22 :   0.4500 0.2500 0.1500  plane waves:     582
 k-point 23 :   0.3500 0.3500 0.1500  plane waves:     583
 k-point 24 :   0.4500 0.3500 0.1500  plane waves:     581
 k-point 25 :   0.4500 0.4500 0.1500  plane waves:     580
 k-point 26 :   0.2500 0.2500 0.2500  plane waves:     585
 k-point 27 :   0.3500 0.2500 0.2500  plane waves:     581
 k-point 28 :   0.4500 0.2500 0.2500  plane waves:     583
 k-point 29 :   0.3500 0.3500 0.2500  plane waves:     585
 k-point 30 :   0.4500 0.3500 0.2500  plane waves:     586
 k-point 31 :   0.4500 0.4500 0.2500  plane waves:     586
 k-point 32 :   0.3500 0.3500 0.3500  plane waves:     585
 k-point 33 :   0.4500 0.3500 0.3500  plane waves:     588
 k-point 34 :   0.4500 0.4500 0.3500  plane waves:     588
 k-point 35 :   0.4500 0.4500 0.4500  plane waves:     588

 maximum and minimum number of plane-waves per node :       155      138

 maximum number of plane-waves:       603
 maximum index in each direction: 
   IXMAX=    5   IYMAX=    5   IZMAX=    5
   IXMIN=   -5   IYMIN=   -5   IZMIN=   -5


 real space projection operators:
  total allocation   :       2216.53 KBytes
  max/ min on nodes  :        566.44        546.47


 parallel 3D FFT for wavefunctions:
    minimum data exchange during FFTs selected (reduces bandwidth)
 parallel 3D FFT for charge:
    minimum data exchange during FFTs selected (reduces bandwidth)


 total amount of memory used by VASP MPI-rank0    32642. kBytes
=======================================================================

   base      :      30000. kBytes
   nonlr-proj:        948. kBytes
   fftplans  :        261. kBytes
   grid      :        623. kBytes
   one-center:         31. kBytes
   wavefun   :        779. kBytes
 
     INWAV:  cpu time    0.0000: real time    0.0001
 Broyden mixing: mesh for mixing (old mesh)
   NGX = 11   NGY = 11   NGZ = 11
  (NGX  = 48   NGY  = 48   NGZ  = 48)
  gives a total of   1331 points

 initial charge density was supplied:
 charge density of overlapping atoms calculated
 number of electron      28.0000000 magnetization      10.0000000
 keeping initial charge density in first step


--------------------------------------------------------------------------------------------------------


 Maximum index for non-local projection operator         1943
 Maximum index for augmentation-charges          805 (set IRDMAX)


--------------------------------------------------------------------------------------------------------


 First call to EWALD:  gamma=   0.624
 Maximum number of real-space cells 3x 3x 3
 Maximum number of reciprocal cells 3x 3x 3

    FEWALD:  cpu time    0.0013: real time    0.0013


--------------------------------------- Iteration      1(   1)  ---------------------------------------


    POTLOK:  cpu time    0.0078: real time    0.0079
    SETDIJ:  cpu time    0.0055: real time    0.0056
     EDDAV:  cpu time    0.4727: real time    0.4800
 BZINTS: Fermi energy: 19.987625; 28.000000 electrons
         Band energy:-119.352450;  BLOECHL correction: -0.184795
       DOS:  cpu time    0.0349: real time    0.0350
    --------------------------------------------
      LOOP:  cpu time    0.5209: real time    0.5285

 eigenvalue-minimisations  :  3576
 total energy-change (2. order) : 0.2030643E+03  (-0.1736114E+04)
 number of electron      28.0000000 magnetization      10.0000000
 augmentation part       28.0000000 magnetization      10.0000000

 Free energy of the ion-electron system (eV)
  ---------------------------------------------------
  alpha Z        PSCENC =       218.87048721
  Ewald energy   TEWEN  =     -3616.56080017
  -Hartree energ DENC   =     -1162.86386254
  -exchange      EXHF   =         0.00000000
  -V(xc)+E(xc)   XCENC  =       147.54621923
  PAW double counting   =      3997.93860218    -4177.34792201
  entropy T*S    EENTRO =         0.00000000
  eigenvalues    EBANDS =      -119.35245003
  atomic energy  EATOM  =      4914.83398793
  Solvation  Ediel_sol  =         0.00000000
  ---------------------------------------------------
  free energy    TOTEN  =       203.06426179 eV

  energy without entropy =      203.06426179  energy(sigma->0) =      203.06426179


--------------------------------------------------------------------------------------------------------




--------------------------------------- Iteration      1(   2)  ---------------------------------------


     EDDAV:  cpu time    0.4465: real time    0.4475
 BZINTS: Fermi energy: 12.180211; 28.000000 electrons
         Band energy:-332.798386;  BLOECHL correction: -0.070888
       DOS:  cpu time    0.0343: real time    0.0344
    --------------------------------------------
      LOOP:  cpu time    0.4808: real time    0.4819

 eigenvalue-minimisations  :  3444
 total energy-change (2. order) :-0.2134459E+03  (-0.2050291E+03)
 number of electron      28.0000000 magnetization      10.0000000
 augmentation part       28.0000000 magnetization      10.0000000

 Free energy of the ion-electron system (eV)
  ---------------------------------------------------
  alpha Z        PSCENC =       218.87048721
  Ewald energy   TEWEN  =     -3616.56080017
  -Hartree energ DENC   =     -1162.86386254
  -exchange      EXHF   =         0.00000000
  -V(xc)+E(xc)   XCENC  =       147.54621923
  PAW double counting   =      3997.93860218    -4177.34792201
  entropy T*S    EENTRO =         0.00000000
  eigenvalues    EBANDS =      -332.79838617
  atomic energy  EATOM  =      4914.83398793
  Solvation  Ediel_sol  =         0.00000000
  ---------------------------------------------------
  free energy    TOTEN  =       -10.38167434 eV

  energy without entropy =      -10.38167434  energy(sigma->0) =      -10.38167434


--------------------------------------------------------------------------------------------------------




--------------------------------------- Iteration      1(   3)  ---------------------------------------


     EDDAV:  cpu time    0.4830: real time    0.4842
 BZINTS: Fermi energy: 12.037401; 28.000000 electrons
         Band energy:-338.641094;  BLOECHL correction: -0.071295
       DOS:  cpu time    0.0334: real time    0.0335
    --------------------------------------------
      LOOP:  cpu time    0.5164: real time    0.5177

 eigenvalue-minimisations  :  3756
 total energy-change (2. order) :-0.5842708E+01  (-0.5831554E+01)
 number of electron      28.0000000 magnetization      10.0000000
 augmentation part       28.0000000 magnetization      10.0000000

 Free energy of the ion-electron system (eV)
  ---------------------------------------------------
  alpha Z        PSCENC =       218.87048721
  Ewald energy   TEWEN  =     -3616.56080017
  -Hartree energ DENC   =     -1162.86386254
  -exchange      EXHF   =         0.00000000
  -V(xc)+E(xc)   XCENC  =       147.54621923
  PAW double counting   =      3997.93860218    -4177.34792201
  entropy T*S    EENTRO =         0.00000000
  eigenvalues    EBANDS =      -338.64109449
  atomic energy  EATOM  =      4914.83398793
  Solvation  Ediel_sol  =         0.00000000
  ---------------------------------------------------
  free energy    TOTEN  =       -16.22438266 eV

  energy without entropy =      -16.22438266  energy(sigma->0) =      -16.22438266


--------------------------------------------------------------------------------------------------------




--------------------------------------- Iteration      1(   4)  ---------------------------------------


     EDDAV:  cpu time    0.4983: real time    0.4998
 BZINTS: Fermi energy: 12.037074; 28.000000 electrons
         Band energy:-338.688435;  BLOECHL correction: -0.071284
       DOS:  cpu time    0.0316: real time    0.0316
    --------------------------------------------
      LOOP:  cpu time    0.5299: real time    0.5314

 eigenvalue-minimisations  :  3888
 total energy-change (2. order) :-0.4734059E-01  (-0.4734347E-01)
 number of electron      28.0000000 magnetization      10.0000000
 augmentation part       28.0000000 magnetization      10.0000000

 Free energy of the ion-electron system (eV)
  ---------------------------------------------------
  alpha Z        PSCENC =       218.87048721
  Ewald energy   TEWEN  =     -3616.56080017
  -Hartree energ DENC   =     -1162.86386254
  -exchange      EXHF   =         0.00000000
  -V(xc)+E(xc)   XCENC  =       147.54621923
  PAW double counting   =      3997.93860218    -4177.34792201
  entropy T*S    EENTRO =         0.00000000
  eigenvalues    EBANDS =      -338.68843508
  atomic energy  EATOM  =      4914.83398793
  Solvation  Ediel_sol  =         0.00000000
  ---------------------------------------------------
  free energy    TOTEN  =       -16.27172325 eV

  energy without entropy =      -16.27172325  energy(sigma->0) =      -16.27172325


--------------------------------------------------------------------------------------------------------




--------------------------------------- Iteration      1(   5)  ---------------------------------------


     EDDAV:  cpu time    0.4785: real time    0.4797
 BZINTS: Fermi energy: 12.037073; 28.000000 electrons
         Band energy:-338.689331;  BLOECHL correction: -0.071284
       DOS:  cpu time    0.0324: real time    0.0325
    CHARGE:  cpu time    0.0147: real time    0.0148
    MIXING:  cpu time    0.0006: real time    0.0006
    --------------------------------------------
      LOOP:  cpu time    0.5263: real time    0.5276

 eigenvalue-minimisations  :  3756
 total energy-change (2. order) :-0.8963714E-03  (-0.8964078E-03)
 number of electron      28.0000000 magnetization       4.3577760
 augmentation part       15.9043412 magnetization       2.8337606

 Broyden mixing:
  rms(total) = 0.24979E+01    rms(broyden)= 0.24979E+01
  rms(prec ) = 0.39504E+01
  weight for this iteration     100.00

 Free energy of the ion-electron system (eV)
  ---------------------------------------------------
  alpha Z        PSCENC =       218.87048721
  Ewald energy   TEWEN  =     -3616.56080017
  -Hartree energ DENC   =     -1162.86386254
  -exchange      EXHF   =         0.00000000
  -V(xc)+E(xc)   XCENC  =       147.54621923
  PAW double counting   =      3997.93860218    -4177.34792201
  entropy T*S    EENTRO =         0.00000000
  eigenvalues    EBANDS =      -338.68933145
  atomic energy  EATOM  =      4914.83398793
  Solvation  Ediel_sol  =         0.00000000
  ---------------------------------------------------
  free energy    TOTEN  =       -16.27261962 eV

  energy without entropy =      -16.27261962  energy(sigma->0) =      -16.27261962


--------------------------------------------------------------------------------------------------------




--------------------------------------- Iteration      1(   6)  ---------------------------------------


    POTLOK:  cpu time    0.0059: real time    0.0060
    SETDIJ:  cpu time    0.0051: real time    0.0051
     EDDAV:  cpu time    0.4388: real time    0.4399
 BZINTS: Fermi energy:  9.266277; 28.000000 electrons
         Band energy:-409.570080;  BLOECHL correction: -0.036189
       DOS:  cpu time    0.0349: real time    0.0350
    CHARGE:  cpu time    0.0144: real time    0.0144
    MIXING:  cpu time    0.0005: real time    0.0005
    --------------------------------------------
      LOOP:  cpu time    0.4996: real time    0.5009

 eigenvalue-minimisations  :  3420
 total energy-change (2. order) :-0.1819268E+00  (-0.7494764E+00)
 number of electron      27.9999999 magnetization       4.5319170
 augmentation part       17.0675958 magnetization       3.5499196

 Broyden mixing:
  rms(total) = 0.69034E+00    rms(broyden)= 0.69023E+00
  rms(prec ) = 0.86602E+00
  weight for this iteration     100.00

 eigenvalues of (default mixing * dielectric matrix)
  average eigenvalue GAMMA=   0.8372
  0.8372

 Free energy of the ion-electron system (eV)
  ---------------------------------------------------
  alpha Z        PSCENC =       218.87048721
  Ewald energy   TEWEN  =     -3616.56080017
  -Hartree energ DENC   =     -1089.09184072
  -exchange      EXHF   =         0.00000000
  -V(xc)+E(xc)   XCENC  =       140.63929472
  PAW double counting   =      4113.65109006    -4289.22668564
  entropy T*S    EENTRO =         0.00000000
  eigenvalues    EBANDS =      -409.57007981
  atomic energy  EATOM  =      4914.83398793
  Solvation  Ediel_sol  =         0.00000000
  ---------------------------------------------------
  free energy    TOTEN  =       -16.45454641 eV

  energy without entropy =      -16.45454641  energy(sigma->0) =      -16.45454641


--------------------------------------------------------------------------------------------------------




--------------------------------------- Iteration      1(   7)  ---------------------------------------


    POTLOK:  cpu time    0.0059: real time    0.0060
    SETDIJ:  cpu time    0.0048: real time    0.0048
     EDDAV:  cpu time    0.4395: real time    0.4406
 BZINTS: Fermi energy:  9.763133; 28.000000 electrons
         Band energy:-395.175836;  BLOECHL correction: -0.033722
       DOS:  cpu time    0.0340: real time    0.0340
    CHARGE:  cpu time    0.0146: real time    0.0146
    MIXING:  cpu time    0.0003: real time    0.0003
    --------------------------------------------
      LOOP:  cpu time    0.4991: real time    0.5004

 eigenvalue-minimisations  :  3408
 total energy-change (2. order) :-0.5611146E-01  (-0.6126031E-01)
 number of electron      27.9999999 magnetization       4.4436759
 augmentation part       16.7738472 magnetization       3.5266051

 Broyden mixing:
  rms(total) = 0.43022E+00    rms(broyden)= 0.43019E+00
  rms(prec ) = 0.52572E+00
  weight for this iteration     100.00

 eigenvalues of (default mixing * dielectric matrix)
  average eigenvalue GAMMA=   0.7673
  0.9881  0.5465

 Free energy of the ion-electron system (eV)
  ---------------------------------------------------
  alpha Z        PSCENC =       218.87048721
  Ewald energy   TEWEN  =     -3616.56080017
  -Hartree energ DENC   =     -1099.09573474
  -exchange      EXHF   =         0.00000000
  -V(xc)+E(xc)   XCENC  =       141.33133800
  PAW double counting   =      4219.50606344    -4400.22016364
  entropy T*S    EENTRO =         0.00000000
  eigenvalues    EBANDS =      -395.17583591
  atomic energy  EATOM  =      4914.83398793
  Solvation  Ediel_sol  =         0.00000000
  ---------------------------------------------------
  free energy    TOTEN  =       -16.51065787 eV

  energy without entropy =      -16.51065787  energy(sigma->0) =      -16.51065787


--------------------------------------------------------------------------------------------------------




--------------------------------------- Iteration      1(   8)  ---------------------------------------


    POTLOK:  cpu time    0.0060: real time    0.0064
    SETDIJ:  cpu time    0.0050: real time    0.0051
     EDDAV:  cpu time    0.4763: real time    0.4774
 BZINTS: Fermi energy:  9.689167; 28.000000 electrons
         Band energy:-397.452167;  BLOECHL correction: -0.033980
       DOS:  cpu time    0.0330: real time    0.0331
    CHARGE:  cpu time    0.0143: real time    0.0143
    MIXING:  cpu time    0.0003: real time    0.0003
    --------------------------------------------
      LOOP:  cpu time    0.5349: real time    0.5365

 eigenvalue-minimisations  :  3720
 total energy-change (2. order) :-0.9962868E-02  (-0.1481445E-02)
 number of electron      27.9999999 magnetization       4.3701200
 augmentation part       16.8100877 magnetization       3.4532244

 Broyden mixing:
  rms(total) = 0.13683E+00    rms(broyden)= 0.13682E+00
  rms(prec ) = 0.21419E+00
  weight for this iteration     100.00

 eigenvalues of (default mixing * dielectric matrix)
  average eigenvalue GAMMA=   1.0471
  1.6978  0.8569  0.5866

 Free energy of the ion-electron system (eV)
  ---------------------------------------------------
  alpha Z        PSCENC =       218.87048721
  Ewald energy   TEWEN  =     -3616.56080017
  -Hartree energ DENC   =     -1095.16905338
  -exchange      EXHF   =         0.00000000
  -V(xc)+E(xc)   XCENC  =       141.10693087
  PAW double counting   =      4267.54261065    -4449.69261672
  entropy T*S    EENTRO =         0.00000000
  eigenvalues    EBANDS =      -397.45216712
  atomic energy  EATOM  =      4914.83398793
  Solvation  Ediel_sol  =         0.00000000
  ---------------------------------------------------
  free energy    TOTEN  =       -16.52062074 eV

  energy without entropy =      -16.52062074  energy(sigma->0) =      -16.52062074


--------------------------------------------------------------------------------------------------------




--------------------------------------- Iteration      1(   9)  ---------------------------------------


    POTLOK:  cpu time    0.0059: real time    0.0061
    SETDIJ:  cpu time    0.0048: real time    0.0048
     EDDAV:  cpu time    0.4639: real time    0.4650
 BZINTS: Fermi energy:  9.610755; 28.000000 electrons
         Band energy:-399.749211;  BLOECHL correction: -0.034536
       DOS:  cpu time    0.0294: real time    0.0295
    CHARGE:  cpu time    0.0142: real time    0.0142
    MIXING:  cpu time    0.0003: real time    0.0003
    --------------------------------------------
      LOOP:  cpu time    0.5185: real time    0.5199

 eigenvalue-minimisations  :  3636
 total energy-change (2. order) : 0.8198559E-02  (-0.5115121E-03)
 number of electron      27.9999999 magnetization       4.4018544
 augmentation part       16.8463108 magnetization       3.4829577

 Broyden mixing:
  rms(total) = 0.33705E-01    rms(broyden)= 0.33699E-01
  rms(prec ) = 0.45937E-01
  weight for this iteration     100.00

 eigenvalues of (default mixing * dielectric matrix)
  average eigenvalue GAMMA=   1.1855
  2.3404  1.0617  0.6987  0.6414

 Free energy of the ion-electron system (eV)
  ---------------------------------------------------
  alpha Z        PSCENC =       218.87048721
  Ewald energy   TEWEN  =     -3616.56080017
  -Hartree energ DENC   =     -1090.25832492
  -exchange      EXHF   =         0.00000000
  -V(xc)+E(xc)   XCENC  =       140.86423972
  PAW double counting   =      4343.95266997    -4528.46547069
  entropy T*S    EENTRO =         0.00000000
  eigenvalues    EBANDS =      -399.74921122
  atomic energy  EATOM  =      4914.83398793
  Solvation  Ediel_sol  =         0.00000000
  ---------------------------------------------------
  free energy    TOTEN  =       -16.51242218 eV

  energy without entropy =      -16.51242218  energy(sigma->0) =      -16.51242218


--------------------------------------------------------------------------------------------------------




--------------------------------------- Iteration      1(  10)  ---------------------------------------


    POTLOK:  cpu time    0.0059: real time    0.0060
    SETDIJ:  cpu time    0.0048: real time    0.0048
     EDDAV:  cpu time    0.4458: real time    0.4469
 BZINTS: Fermi energy:  9.625104; 28.000000 electrons
         Band energy:-399.210122;  BLOECHL correction: -0.034693
       DOS:  cpu time    0.0330: real time    0.0331
    CHARGE:  cpu time    0.0143: real time    0.0143
    MIXING:  cpu time    0.0004: real time    0.0004
    --------------------------------------------
      LOOP:  cpu time    0.5042: real time    0.5054

 eigenvalue-minimisations  :  3480
 total energy-change (2. order) : 0.1740957E-03  (-0.2249629E-03)
 number of electron      27.9999999 magnetization       4.4066403
 augmentation part       16.8343156 magnetization       3.4850007

 Broyden mixing:
  rms(total) = 0.43964E-02    rms(broyden)= 0.43963E-02
  rms(prec ) = 0.54493E-02
  weight for this iteration     100.00

 eigenvalues of (default mixing * dielectric matrix)
  average eigenvalue GAMMA=   1.1290
  2.4319  1.0996  0.7826  0.6972  0.6338

 Free energy of the ion-electron system (eV)
  ---------------------------------------------------
  alpha Z        PSCENC =       218.87048721
  Ewald energy   TEWEN  =     -3616.56080017
  -Hartree energ DENC   =     -1089.87013811
  -exchange      EXHF   =         0.00000000
  -V(xc)+E(xc)   XCENC  =       140.87156978
  PAW double counting   =      4372.82090317    -4558.26813550
  entropy T*S    EENTRO =         0.00000000
  eigenvalues    EBANDS =      -399.21012240
  atomic energy  EATOM  =      4914.83398793
  Solvation  Ediel_sol  =         0.00000000
  ---------------------------------------------------
  free energy    TOTEN  =       -16.51224809 eV

  energy without entropy =      -16.51224809  energy(sigma->0) =      -16.51224809


--------------------------------------------------------------------------------------------------------




--------------------------------------- Iteration      1(  11)  ---------------------------------------


    POTLOK:  cpu time    0.0059: real time    0.0060
    SETDIJ:  cpu time    0.0048: real time    0.0048
     EDDAV:  cpu time    0.4547: real time    0.4557
 BZINTS: Fermi energy:  9.623543; 28.000000 electrons
         Band energy:-399.242197;  BLOECHL correction: -0.034710
       DOS:  cpu time    0.0339: real time    0.0340
    CHARGE:  cpu time    0.0143: real time    0.0144
    MIXING:  cpu time    0.0004: real time    0.0004
    --------------------------------------------
      LOOP:  cpu time    0.5140: real time    0.5153

 eigenvalue-minimisations  :  3552
 total energy-change (2. order) :-0.5912038E-04  (-0.4782915E-05)
 number of electron      27.9999999 magnetization       4.4060275
 augmentation part       16.8348665 magnetization       3.4846529

 Broyden mixing:
  rms(total) = 0.24236E-02    rms(broyden)= 0.24234E-02
  rms(prec ) = 0.32803E-02
  weight for this iteration     100.00

 eigenvalues of (default mixing * dielectric matrix)
  average eigenvalue GAMMA=   1.2936
  2.3010  2.3010  1.0745  0.6331  0.7543  0.6978

 Free energy of the ion-electron system (eV)
  ---------------------------------------------------
  alpha Z        PSCENC =       218.87048721
  Ewald energy   TEWEN  =     -3616.56080017
  -Hartree energ DENC   =     -1089.86258013
  -exchange      EXHF   =         0.00000000
  -V(xc)+E(xc)   XCENC  =       140.87397057
  PAW double counting   =      4374.05145960    -4559.47663500
  entropy T*S    EENTRO =         0.00000000
  eigenvalues    EBANDS =      -399.24219722
  atomic energy  EATOM  =      4914.83398793
  Solvation  Ediel_sol  =         0.00000000
  ---------------------------------------------------
  free energy    TOTEN  =       -16.51230721 eV

  energy without entropy =      -16.51230721  energy(sigma->0) =      -16.51230721


--------------------------------------------------------------------------------------------------------




--------------------------------------- Iteration      1(  12)  ---------------------------------------


    POTLOK:  cpu time    0.0059: real time    0.0060
    SETDIJ:  cpu time    0.0048: real time    0.0048
     EDDAV:  cpu time    0.4948: real time    0.4959
 BZINTS: Fermi energy:  9.622040; 28.000000 electrons
         Band energy:-399.275883;  BLOECHL correction: -0.034723
       DOS:  cpu time    0.0321: real time    0.0322
    CHARGE:  cpu time    0.0143: real time    0.0143
    MIXING:  cpu time    0.0004: real time    0.0004
    --------------------------------------------
      LOOP:  cpu time    0.5522: real time    0.5536

 eigenvalue-minimisations  :  3888
 total energy-change (2. order) :-0.7981677E-05  (-0.4720476E-06)
 number of electron      27.9999999 magnetization       4.4057472
 augmentation part       16.8355653 magnetization       3.4846332

 Broyden mixing:
  rms(total) = 0.95508E-03    rms(broyden)= 0.95503E-03
  rms(prec ) = 0.13422E-02
  weight for this iteration     100.00

 eigenvalues of (default mixing * dielectric matrix)
  average eigenvalue GAMMA=   1.2306
  2.3872  2.3872  1.0831  0.7881  0.7180  0.6255  0.6255

 Free energy of the ion-electron system (eV)
  ---------------------------------------------------
  alpha Z        PSCENC =       218.87048721
  Ewald energy   TEWEN  =     -3616.56080017
  -Hartree energ DENC   =     -1089.91426203
  -exchange      EXHF   =         0.00000000
  -V(xc)+E(xc)   XCENC  =       140.87663293
  PAW double counting   =      4375.13876774    -4560.48124573
  entropy T*S    EENTRO =         0.00000000
  eigenvalues    EBANDS =      -399.27588308
  atomic energy  EATOM  =      4914.83398793
  Solvation  Ediel_sol  =         0.00000000
  ---------------------------------------------------
  free energy    TOTEN  =       -16.51231519 eV

  energy without entropy =      -16.51231519  energy(sigma->0) =      -16.51231519


--------------------------------------------------------------------------------------------------------




--------------------------------------- Iteration      1(  13)  ---------------------------------------


    POTLOK:  cpu time    0.0059: real time    0.0060
    SETDIJ:  cpu time    0.0048: real time    0.0048
     EDDAV:  cpu time    0.4491: real time    0.4502
 BZINTS: Fermi energy:  9.622640; 28.000000 electrons
         Band energy:-399.263572;  BLOECHL correction: -0.034715
       DOS:  cpu time    0.0349: real time    0.0349
    CHARGE:  cpu time    0.0147: real time    0.0147
    MIXING:  cpu time    0.0005: real time    0.0005
    --------------------------------------------
      LOOP:  cpu time    0.5098: real time    0.5111

 eigenvalue-minimisations  :  3480
 total energy-change (2. order) : 0.6768149E-05  (-0.1325852E-06)
 number of electron      27.9999999 magnetization       4.4055492
 augmentation part       16.8352656 magnetization       3.4843253

 Broyden mixing:
  rms(total) = 0.24021E-03    rms(broyden)= 0.24017E-03
  rms(prec ) = 0.32624E-03
  weight for this iteration     100.00

 eigenvalues of (default mixing * dielectric matrix)
  average eigenvalue GAMMA=   1.2908
  2.5279  2.4511  1.4763  1.0638  0.8074  0.6260  0.6870  0.6870

 Free energy of the ion-electron system (eV)
  ---------------------------------------------------
  alpha Z        PSCENC =       218.87048721
  Ewald energy   TEWEN  =     -3616.56080017
  -Hartree energ DENC   =     -1089.92121206
  -exchange      EXHF   =         0.00000000
  -V(xc)+E(xc)   XCENC  =       140.87652129
  PAW double counting   =      4375.26008918    -4560.60780980
  entropy T*S    EENTRO =         0.00000000
  eigenvalues    EBANDS =      -399.26357200
  atomic energy  EATOM  =      4914.83398793
  Solvation  Ediel_sol  =         0.00000000
  ---------------------------------------------------
  free energy    TOTEN  =       -16.51230842 eV

  energy without entropy =      -16.51230842  energy(sigma->0) =      -16.51230842


--------------------------------------------------------------------------------------------------------




--------------------------------------- Iteration      1(  14)  ---------------------------------------


    POTLOK:  cpu time    0.0063: real time    0.0066
    SETDIJ:  cpu time    0.0050: real time    0.0050
     EDDAV:  cpu time    0.3780: real time    0.3789
 BZINTS: Fermi energy:  9.622873; 28.000000 electrons
         Band energy:-399.258898;  BLOECHL correction: -0.034713
       DOS:  cpu time    0.0321: real time    0.0322
    CHARGE:  cpu time    0.0143: real time    0.0143
    MIXING:  cpu time    0.0005: real time    0.0005
    --------------------------------------------
      LOOP:  cpu time    0.4361: real time    0.4375

 eigenvalue-minimisations  :  2664
 total energy-change (2. order) : 0.1488273E-05  (-0.1484420E-07)
 number of electron      27.9999999 magnetization       4.4055672
 augmentation part       16.8351553 magnetization       3.4843105

 Broyden mixing:
  rms(total) = 0.60529E-04    rms(broyden)= 0.60313E-04
  rms(prec ) = 0.80796E-04
  weight for this iteration     100.00

 eigenvalues of (default mixing * dielectric matrix)
  average eigenvalue GAMMA=   1.2120
  2.6086  2.4670  1.2830  1.0492  0.8273  0.6316  0.6684  0.6866  0.6866

 Free energy of the ion-electron system (eV)
  ---------------------------------------------------
  alpha Z        PSCENC =       218.87048721
  Ewald energy   TEWEN  =     -3616.56080017
  -Hartree energ DENC   =     -1089.92354919
  -exchange      EXHF   =         0.00000000
  -V(xc)+E(xc)   XCENC  =       140.87635477
  PAW double counting   =      4375.25936316    -4560.60925220
  entropy T*S    EENTRO =         0.00000000
  eigenvalues    EBANDS =      -399.25889844
  atomic energy  EATOM  =      4914.83398793
  Solvation  Ediel_sol  =         0.00000000
  ---------------------------------------------------
  free energy    TOTEN  =       -16.51230693 eV

  energy without entropy =      -16.51230693  energy(sigma->0) =      -16.51230693


--------------------------------------------------------------------------------------------------------




--------------------------------------- Iteration      1(  15)  ---------------------------------------


    POTLOK:  cpu time    0.0060: real time    0.0061
    SETDIJ:  cpu time    0.0048: real time    0.0048
     EDDAV:  cpu time    0.2895: real time    0.2902
 BZINTS: Fermi energy:  9.622838; 28.000000 electrons
         Band energy:-399.259811;  BLOECHL correction: -0.034713
       DOS:  cpu time    0.0339: real time    0.0340
    --------------------------------------------
      LOOP:  cpu time    0.3341: real time    0.3350

 eigenvalue-minimisations  :  1740
 total energy-change (2. order) :-0.1492754E-07  (-0.1161736E-08)
 number of electron      27.9999999 magnetization       4.4055672
 augmentation part       16.8351553 magnetization       3.4843105

 Free energy of the ion-electron system (eV)
  ---------------------------------------------------
  alpha Z        PSCENC =       218.87048721
  Ewald energy   TEWEN  =     -3616.56080017
  -Hartree energ DENC   =     -1089.92314888
  -exchange      EXHF   =         0.00000000
  -V(xc)+E(xc)   XCENC  =       140.87638634
  PAW double counting   =      4375.25518205    -4560.60459058
  entropy T*S    EENTRO =         0.00000000
  eigenvalues    EBANDS =      -399.25981084
  atomic energy  EATOM  =      4914.83398793
  Solvation  Ediel_sol  =         0.00000000
  ---------------------------------------------------
  free energy    TOTEN  =       -16.51230695 eV

  energy without entropy =      -16.51230695  energy(sigma->0) =      -16.51230695


--------------------------------------------------------------------------------------------------------




 average (electrostatic) potential at core
  the test charge radii are     0.9500
  (the norm of the test charge is              1.0000)
       1 -73.6649       2 -73.6649
 
 
 
 E-fermi :   9.6228     XC(G=0): -13.6244     alpha+bet :-17.4163


 spin component 1

 k-point     1 :       0.0500    0.0500    0.0500
  band No.  band energies     occupation 
      1     -44.5599      1.00000
      2     -44.5599      1.00000
      3     -44.5456      1.00000
      4     -44.2889      1.00000
      5     -44.2741      1.00000
      6     -44.2741      1.00000
      7       1.3977      1.00000
      8       4.9389      1.00000
      9       4.9389      1.00000
     10       7.3049      1.00000
     11       7.3049      1.00000
     12       7.4310      1.00000
     13       8.5806      1.00000
     14       8.5806      1.00000
     15       9.4949      1.00000
     16       9.6872      0.60096
     17       9.6872      0.00980
     18      19.1992      0.00000
     19      19.1992      0.00000
     20      19.4412      0.00000
     21      25.8107      0.00000
     22      25.8107      0.00000
     23      30.6971      0.00000
     24      33.3490      0.00000

 k-point     2 :       0.1500    0.0500    0.0500
  band No.  band energies     occupation 
      1     -44.5659      1.00000
      2     -44.5451      1.00000
      3     -44.5235      1.00000
      4     -44.3205      1.00000
      5     -44.2873      1.00000
      6     -44.2796      1.00000
      7       1.8014      1.00000
      8       5.1068      1.00000
      9       5.1089      1.00000
     10       7.2465      1.00000
     11       7.2949      1.00000
     12       7.5993      1.00000
     13       8.4145      1.00000
     14       8.6557      1.00000
     15       9.1042      1.00000
     16       9.3727      1.02105
     17       9.6658      0.13621
     18      17.0985      0.00000
     19      19.9182      0.00000
     20      20.0953      0.00000
     21      25.9623      0.00000
     22      27.1443      0.00000
     23      31.5530      0.00000
     24      32.1496      0.00000

 k-point     3 :       0.2500    0.0500    0.0500
  band No.  band energies     occupation 
      1     -44.5631      1.00000
      2     -44.5172      1.00000
      3     -44.4927      1.00000
      4     -44.3683      1.00000
      5     -44.3127      1.00000
      6     -44.2996      1.00000
      7       2.5669      1.00000
      8       5.3680      1.00000
      9       5.4281      1.00000
     10       7.2426      1.00000
     11       7.2877      1.00000
     12       7.8418      1.00000
     13       8.1082      1.00000
     14       8.6069      1.00000
     15       8.7950      1.00000
     16       8.8892      1.00000
     17       9.4860      1.03926
     18      14.5754      0.00000
     19      21.1875      0.00000
     20      21.3581      0.00000
     21      26.2950      0.00000
     22      27.9720      0.00000
     23      29.6292      0.00000
     24      31.2961      0.00000

 k-point     4 :       0.3500    0.0500    0.0500
  band No.  band energies     occupation 
      1     -44.5486      1.00000
      2     -44.4794      1.00000
      3     -44.4548      1.00000
      4     -44.4236      1.00000
      5     -44.3480      1.00000
      6     -44.3310      1.00000
      7       3.5891      1.00000
      8       5.5405      1.00000
      9       5.8732      1.00000
     10       7.2461      1.00000
     11       7.3215      1.00000
     12       7.7682      1.00000
     13       8.1306      1.00000
     14       8.1504      1.00000
     15       8.3931      1.00000
     16       9.0194      1.00000
     17       9.2006      1.03865
     18      12.2831      0.00000
     19      22.7943      0.00000
     20      23.0070      0.00000
     21      26.8759      0.00000
     22      27.8751      0.00000
     23      28.6105      0.00000
     24      29.1474      0.00000

 k-point     5 :       0.4500    0.0500    0.0500
  band No.  band energies     occupation 
      1     -44.5199      1.00000
      2     -44.4768      1.00000
      3     -44.4356      1.00000
      4     -44.4126      1.00000
      5     -44.3903      1.00000
      6     -44.3700      1.00000
      7       4.6410      1.00000
      8       5.3583      1.00000
      9       6.3952      1.00000
     10       6.9178      1.00000
     11       7.4993      1.00000
     12       7.7313      1.00000
     13       7.7627      1.00000
     14       7.9856      1.00000
     15       8.4992      1.00000
     16       8.8576      1.00000
     17       9.4833      0.98556
     18      10.5196      0.00000
     19      24.5323      0.00000
     20      24.9043      0.00000
     21      26.2268      0.00000
     22      26.9670      0.00000
     23      27.8215      0.00000
     24      29.2509      0.00000

 k-point     6 :       0.1500    0.1500    0.0500
  band No.  band energies     occupation 
      1     -44.5800      1.00000
      2     -44.5363      1.00000
      3     -44.4911      1.00000
      4     -44.3620      1.00000
      5     -44.2975      1.00000
      6     -44.2741      1.00000
      7       2.1893      1.00000
      8       5.2397      1.00000
      9       5.2984      1.00000
     10       7.0940      1.00000
     11       7.2377      1.00000
     12       7.8702      1.00000
     13       8.4389      1.00000
     14       8.6110      1.00000
     15       8.6248      1.00000
     16       9.1498      1.00690
     17       9.7349      0.03142
     18      17.1957      0.00000
     19      18.2808      0.00000
     20      20.6505      0.00000
     21      26.6287      0.00000
     22      28.5396      0.00000
     23      29.9222      0.00000
     24      31.9698      0.00000

 k-point     7 :       0.2500    0.1500    0.0500
  band No.  band energies     occupation 
      1     -44.5892      1.00000
      2     -44.5108      1.00000
      3     -44.4534      1.00000
      4     -44.4167      1.00000
      5     -44.3205      1.00000
      6     -44.2815      1.00000
      7       2.9157      1.00000
      8       5.4559      1.00000
      9       5.6211      1.00000
     10       6.9885      1.00000
     11       7.1827      1.00000
     12       8.1059      1.00000
     13       8.2004      1.00000
     14       8.2829      1.00000
     15       8.7218      1.00000
     16       8.7249      1.00000
     17       9.6887      0.28929
     18      14.9836      0.00000
     19      19.0118      0.00000
     20      21.7953      0.00000
     21      27.0203      0.00000
     22      27.7479      0.00000
     23      29.9241      0.00000
     24      30.6414      0.00000

 k-point     8 :       0.3500    0.1500    0.0500
  band No.  band energies     occupation 
      1     -44.5851      1.00000
      2     -44.4753      1.00000
      3     -44.4746      1.00000
      4     -44.4127      1.00000
      5     -44.3530      1.00000
      6     -44.3025      1.00000
      7       3.8579      1.00000
      8       5.5958      1.00000
      9       6.0121      1.00000
     10       6.9648      1.00000
     11       7.1192      1.00000
     12       7.6673      1.00000
     13       8.0935      1.00000
     14       8.3378      1.00000
     15       8.5645      1.00000
     16       8.9635      1.00000
     17       9.4970      0.92396
     18      12.6531      0.00000
     19      20.3760      0.00000
     20      23.3118      0.00000
     21      25.6605      0.00000
     22      27.5892      0.00000
     23      28.7791      0.00000
     24      30.9264      0.00000

 k-point     9 :       0.4500    0.1500    0.0500
  band No.  band energies     occupation 
      1     -44.5642      1.00000
      2     -44.5261      1.00000
      3     -44.4343      1.00000
      4     -44.3921      1.00000
      5     -44.3718      1.00000
      6     -44.3338      1.00000
      7       4.7817      1.00000
      8       5.4047      1.00000
      9       6.4371      1.00000
     10       6.8154      1.00000
     11       7.1500      1.00000
     12       7.3558      1.00000
     13       8.0552      1.00000
     14       8.1287      1.00000
     15       8.8895      1.00000
     16       9.2083      1.00000
     17       9.5413      0.77884
     18      10.7643      0.00000
     19      21.9648      0.00000
     20      23.7293      0.00000
     21      25.0471      0.00000
     22      26.8830      0.00000
     23      28.4947      0.00000
     24      29.8474      0.00000

 k-point    10 :       0.2500    0.2500    0.0500
  band No.  band energies     occupation 
      1     -44.6124      1.00000
      2     -44.4901      1.00000
      3     -44.4764      1.00000
      4     -44.4105      1.00000
      5     -44.3383      1.00000
      6     -44.2742      1.00000
      7       3.5386      1.00000
      8       5.5109      1.00000
      9       6.0145      1.00000
     10       6.7717      1.00000
     11       7.1539      1.00000
     12       7.5989      1.00000
     13       8.4265      1.00000
     14       8.4289      1.00000
     15       8.6232      1.00000
     16       8.6652      1.00000
     17       9.8082     -0.03401
     18      14.8628      0.00000
     19      17.4657      0.00000
     20      22.7544      0.00000
     21      25.3835      0.00000
     22      27.3664      0.00000
     23      30.0597      0.00000
     24      32.3854      0.00000

 k-point    11 :       0.3500    0.2500    0.0500
  band No.  band energies     occupation 
      1     -44.6216      1.00000
      2     -44.5347      1.00000
      3     -44.4613      1.00000
      4     -44.3689      1.00000
      5     -44.3636      1.00000
      6     -44.2814      1.00000
      7       4.2635      1.00000
      8       5.4681      1.00000
      9       6.4676      1.00000
     10       6.6642      1.00000
     11       7.1895      1.00000
     12       7.2438      1.00000
     13       8.2730      1.00000
     14       8.4049      1.00000
     15       8.8100      1.00000
     16       9.0700      1.02187
     17       9.7582      0.00393
     18      13.0480      0.00000
     19      18.1034      0.00000
     20      23.1678      0.00000
     21      24.0659      0.00000
     22      27.8482      0.00000
     23      28.7851      0.00000
     24      31.4416      0.00000

 k-point    12 :       0.4500    0.2500    0.0500
  band No.  band energies     occupation 
      1     -44.6119      1.00000
      2     -44.5821      1.00000
      3     -44.4282      1.00000
      4     -44.3945      1.00000
      5     -44.3317      1.00000
      6     -44.3015      1.00000
      7       4.8667      1.00000
      8       5.2599      1.00000
      9       6.6825      1.00000
     10       6.7711      1.00000
     11       7.0124      1.00000
     12       7.2245      1.00000
     13       8.3127      1.00000
     14       8.3956      1.00000
     15       9.1813      1.00000
     16       9.5470      0.95173
     17       9.7288      0.02995
     18      11.1093      0.00000
     19      19.4887      0.00000
     20      21.1930      0.00000
     21      25.5956      0.00000
     22      27.2068      0.00000
     23      28.6470      0.00000
     24      29.8690      0.00000

 k-point    13 :       0.3500    0.3500    0.0500
  band No.  band energies     occupation 
      1     -44.6447      1.00000
      2     -44.5892      1.00000
      3     -44.4420      1.00000
      4     -44.3791      1.00000
      5     -44.3306      1.00000
      6     -44.2743      1.00000
      7       4.6033      1.00000
      8       5.2504      1.00000
      9       6.4675      1.00000
     10       6.7903      1.00000
     11       7.0691      1.00000
     12       7.8005      1.00000
     13       8.3291      1.00000
     14       8.5822      1.00000
     15       8.7316      1.00000
     16       9.5047      0.96293
     17       9.8587     -0.00497
     18      12.6724      0.00000
     19      17.0753      0.00000
     20      20.9325      0.00000
     21      25.1099      0.00000
     22      28.2079      0.00000
     23      28.4080      0.00000
     24      30.7485      0.00000

 k-point    14 :       0.4500    0.3500    0.0500
  band No.  band energies     occupation 
      1     -44.6480      1.00000
      2     -44.6289      1.00000
      3     -44.4202      1.00000
      4     -44.3985      1.00000
      5     -44.3006      1.00000
      6     -44.2812      1.00000
      7       4.8279      1.00000
      8       5.0277      1.00000
      9       6.4162      1.00000
     10       6.5256      1.00000
     11       7.6338      1.00000
     12       8.0158      1.00000
     13       8.4774      1.00000
     14       8.6085      1.00000
     15       9.2345      1.00000
     16       9.7477      0.31700
     17      10.0491      0.00000
     18      11.2873      0.00000
     19      17.6522      0.00000
     20      19.0564      0.00000
     21      26.3160      0.00000
     22      27.4991      0.00000
     23      28.8182      0.00000
     24      29.7268      0.00000

 k-point    15 :       0.4500    0.4500    0.0500
  band No.  band energies     occupation 
      1     -44.6647      1.00000
      2     -44.6581      1.00000
      3     -44.4118      1.00000
      4     -44.4043      1.00000
      5     -44.2811      1.00000
      6     -44.2744      1.00000
      7       4.7958      1.00000
      8       4.8573      1.00000
      9       6.2869      1.00000
     10       6.3244      1.00000
     11       8.3607      1.00000
     12       8.5987      1.00000
     13       8.6197      1.00000
     14       8.7805      1.00000
     15       9.2764      1.00000
     16       9.7027      0.28334
     17      10.4352      0.00000
     18      10.9857      0.00000
     19      16.9429      0.00000
     20      17.5290      0.00000
     21      27.0344      0.00000
     22      27.4879      0.00000
     23      29.0844      0.00000
     24      29.4294      0.00000

 k-point    16 :       0.1500    0.1500    0.1500
  band No.  band energies     occupation 
      1     -44.5642      1.00000
      2     -44.5642      1.00000
      3     -44.4554      1.00000
      4     -44.3996      1.00000
      5     -44.2883      1.00000
      6     -44.2883      1.00000
      7       2.5665      1.00000
      8       5.4269      1.00000
      9       5.4269      1.00000
     10       7.0365      1.00000
     11       7.0365      1.00000
     12       8.0862      1.00000
     13       8.1862      1.00000
     14       8.5285      1.00000
     15       8.5285      1.00000
     16       9.4251      0.99979
     17       9.4251      1.11234
     18      17.8410      0.00000
     19      17.8410      0.00000
     20      19.2368      0.00000
     21      28.7878      0.00000
     22      28.7878      0.00000
     23      29.7388      0.00000
     24      29.7388      0.00000

 k-point    17 :       0.2500    0.1500    0.1500
  band No.  band energies     occupation 
      1     -44.5845      1.00000
      2     -44.5345      1.00000
      3     -44.4509      1.00000
      4     -44.4173      1.00000
      5     -44.3155      1.00000
      6     -44.2877      1.00000
      7       3.2653      1.00000
      8       5.6660      1.00000
      9       5.7002      1.00000
     10       6.9039      1.00000
     11       6.9353      1.00000
     12       7.5734      1.00000
     13       8.3827      1.00000
     14       8.5853      1.00000
     15       8.6831      1.00000
     16       8.9721      1.00000
     17       9.5065      0.95268
     18      15.4700      0.00000
     19      18.9549      0.00000
     20      19.8766      0.00000
     21      27.5258      0.00000
     22      28.5416      0.00000
     23      29.3033      0.00000
     24      30.5093      0.00000

 k-point    18 :       0.3500    0.1500    0.1500
  band No.  band energies     occupation 
      1     -44.5906      1.00000
      2     -44.5039      1.00000
      3     -44.4941      1.00000
      4     -44.3805      1.00000
      5     -44.3534      1.00000
      6     -44.2984      1.00000
      7       4.1486      1.00000
      8       5.8195      1.00000
      9       5.9792      1.00000
     10       6.7957      1.00000
     11       6.9297      1.00000
     12       7.2682      1.00000
     13       8.2265      1.00000
     14       8.5460      1.00000
     15       8.8086      1.00000
     16       9.1281      1.00000
     17       9.4069      0.92707
     18      13.1243      0.00000
     19      20.3546      0.00000
     20      21.0649      0.00000
     21      25.4925      0.00000
     22      26.4576      0.00000
     23      30.1156      0.00000
     24      31.4556      0.00000

 k-point    19 :       0.4500    0.1500    0.1500
  band No.  band energies     occupation 
      1     -44.5790      1.00000
      2     -44.5490      1.00000
      3     -44.4472      1.00000
      4     -44.3987      1.00000
      5     -44.3469      1.00000
      6     -44.3188      1.00000
      7       4.9804      1.00000
      8       5.5625      1.00000
[...]
     19      18.3222      0.00000
     20      20.7969      0.00000
     21      22.3837      0.00000
     22      24.8366      0.00000
     23      26.2501      0.00000
     24      30.1359      0.00000

 k-point    30 :       0.4500    0.3500    0.2500
  band No.  band energies     occupation 
      1     -42.0273      1.00000
      2     -42.0270      1.00000
      3     -41.8757      1.00000
      4     -41.8244      1.00000
      5     -41.7182      1.00000
      6     -41.7139      1.00000
      7       6.7332      1.00000
      8       7.0454      1.00000
      9       7.9679      1.00000
     10       7.9788      1.00000
     11       8.3649      1.00000
     12       8.4916      1.00000
     13      11.1842      0.00000
     14      11.2347      0.00000
     15      11.5150      0.00000
     16      11.5333      0.00000
     17      13.8175      0.00000
     18      14.8899      0.00000
     19      19.1261      0.00000
     20      20.5768      0.00000
     21      21.9128      0.00000
     22      23.4382      0.00000
     23      26.7657      0.00000
     24      28.2362      0.00000

 k-point    31 :       0.4500    0.4500    0.2500
  band No.  band energies     occupation 
      1     -42.0351      1.00000
      2     -42.0345      1.00000
      3     -41.8563      1.00000
      4     -41.8355      1.00000
      5     -41.7245      1.00000
      6     -41.7208      1.00000
      7       6.8533      1.00000
      8       6.9339      1.00000
      9       7.8852      1.00000
     10       7.9001      1.00000
     11       8.6616      1.00000
     12       8.7307      1.00000
     13      11.3009      0.00000
     14      11.3257      0.00000
     15      11.5264      0.00000
     16      11.5390      0.00000
     17      14.4942      0.00000
     18      15.0170      0.00000
     19      18.3896      0.00000
     20      19.0493      0.00000
     21      23.0062      0.00000
     22      24.1216      0.00000
     23      25.2325      0.00000
     24      26.3290      0.00000

 k-point    32 :       0.3500    0.3500    0.3500
  band No.  band energies     occupation 
      1     -42.0112      1.00000
      2     -41.9609      1.00000
      3     -41.9609      1.00000
      4     -41.7723      1.00000
      5     -41.7723      1.00000
      6     -41.7221      1.00000
      7       6.9266      1.00000
      8       7.5009      1.00000
      9       7.9281      1.00000
     10       7.9281      1.00000
     11       8.0745      1.00000
     12       8.0745      1.00000
     13      11.3765      0.00000
     14      11.3765      0.00000
     15      11.4152      0.00000
     16      11.4152      0.00000
     17      13.8658      0.00000
     18      17.4975      0.00000
     19      17.4975      0.00000
     20      19.8863      0.00000
     21      22.8239      0.00000
     22      22.8239      0.00000
     23      24.1453      0.00000
     24      28.0395      0.00000

 k-point    33 :       0.4500    0.3500    0.3500
  band No.  band energies     occupation 
      1     -42.0059      1.00000
      2     -41.9900      1.00000
      3     -41.8982      1.00000
      4     -41.8332      1.00000
      5     -41.7559      1.00000
      6     -41.7372      1.00000
      7       7.2802      1.00000
      8       7.3825      1.00000
      9       7.8727      1.00000
     10       7.9210      1.00000
     11       8.0472      1.00000
     12       8.2175      1.00000
     13      11.3597      0.00000
     14      11.3850      0.00000
     15      11.5028      0.00000
     16      11.5140      0.00000
     17      14.8066      0.00000
     18      16.0279      0.00000
     19      19.1310      0.00000
     20      20.4296      0.00000
     21      20.9117      0.00000
     22      21.6693      0.00000
     23      24.5506      0.00000
     24      26.0866      0.00000

 k-point    34 :       0.4500    0.4500    0.3500
  band No.  band energies     occupation 
      1     -41.9887      1.00000
      2     -41.9775      1.00000
      3     -41.8844      1.00000
      4     -41.8482      1.00000
      5     -41.7785      1.00000
      6     -41.7639      1.00000
      7       7.4288      1.00000
      8       7.4424      1.00000
      9       7.8029      1.00000
     10       7.8459      1.00000
     11       8.1733      1.00000
     12       8.2616      1.00000
     13      11.4437      0.00000
     14      11.4544      0.00000
     15      11.5333      0.00000
     16      11.5376      0.00000
     17      15.8062      0.00000
     18      16.5888      0.00000
     19      18.5410      0.00000
     20      19.5007      0.00000
     21      21.0124      0.00000
     22      22.1188      0.00000
     23      22.9688      0.00000
     24      24.1592      0.00000

 k-point    35 :       0.4500    0.4500    0.4500
  band No.  band energies     occupation 
      1     -41.9438      1.00000
      2     -41.9113      1.00000
      3     -41.9113      1.00000
      4     -41.8428      1.00000
      5     -41.8428      1.00000
      6     -41.8103      1.00000
      7       7.6631      1.00000
      8       7.8096      1.00000
      9       7.8096      1.00000
     10       7.9084      1.00000
     11       7.9537      1.00000
     12       7.9537      1.00000
     13      11.5393      0.00000
     14      11.5393      0.00000
     15      11.5423      0.00000
     16      11.5423      0.00000
     17      17.1207      0.00000
     18      18.3149      0.00000
     19      18.3149      0.00000
     20      20.0018      0.00000
     21      20.1678      0.00000
     22      20.1678      0.00000
     23      21.5174      0.00000
     24      22.3094      0.00000


--------------------------------------------------------------------------------------------------------


 soft charge-density along one line, spin component           1
         0         1         2         3         4         5         6         7         8         9
 total charge-density along one line
 
 soft charge-density along one line, spin component           2
         0         1         2         3         4         5         6         7         8         9
 total charge-density along one line
 
 pseudopotential strength for first ion, spin component:           1
-44.858  -0.000   0.000   7.570   0.000  -0.000  -0.000   0.000
 -0.000 -44.858   0.000   0.000   7.570  -0.000   0.000   0.000
  0.000   0.000 -44.858  -0.000  -0.000   7.570   0.000   0.000
  7.570   0.000  -0.000   5.637   0.000  -0.000   0.000  -0.000
  0.000   7.570  -0.000   0.000   5.637  -0.000  -0.000  -0.000
 -0.000  -0.000   7.570  -0.000  -0.000   5.637  -0.000  -0.000
 -0.000   0.000   0.000   0.000  -0.000  -0.000  -1.981   0.000
  0.000   0.000   0.000  -0.000  -0.000  -0.000   0.000  -1.981
 -0.000   0.000   0.000   0.000  -0.000  -0.000  -0.000  -0.000
  0.000  -0.000   0.000  -0.000  -0.000  -0.000  -0.000   0.000
 -0.000   0.000  -0.000   0.000  -0.000   0.000  -0.000   0.000
  0.000   0.000   0.000   0.000  -0.000  -0.000  -2.496   0.000
  0.000   0.000   0.000  -0.000  -0.000  -0.000   0.000  -2.496
 -0.000   0.000  -0.000   0.000  -0.000  -0.000  -0.000  -0.000
  0.000   0.000   0.000  -0.000   0.000  -0.000  -0.000   0.000
 -0.000   0.000   0.000   0.000  -0.000   0.000  -0.000   0.000
 -0.000  -0.000   0.000  -0.000  -0.000   0.000  -0.000   0.000
 -0.000  -0.000  -0.000  -0.000  -0.000   0.000  -0.000   0.000
 pseudopotential strength for first ion, spin component:           2
-42.886  -0.000   0.000   6.737   0.000  -0.000  -0.000   0.000
 -0.000 -42.886   0.000   0.000   6.737  -0.000  -0.000   0.000
  0.000   0.000 -42.886  -0.000  -0.000   6.737   0.000  -0.000
  6.737   0.000  -0.000   5.866   0.000  -0.000   0.000  -0.000
  0.000   6.737  -0.000   0.000   5.866  -0.000   0.000  -0.000
 -0.000  -0.000   6.737  -0.000  -0.000   5.866  -0.000   0.000
 -0.000  -0.000   0.000   0.000   0.000  -0.000  -0.455   0.000
  0.000   0.000  -0.000  -0.000  -0.000   0.000   0.000  -0.455
 -0.000   0.000   0.000   0.000  -0.000  -0.000  -0.000  -0.000
 -0.000  -0.000   0.000   0.000   0.000  -0.000  -0.000   0.000
 -0.000   0.000  -0.000   0.000  -0.000   0.000  -0.000   0.000
 -0.000  -0.000   0.000   0.000   0.000  -0.000  -0.995   0.000
  0.000   0.000  -0.000  -0.000  -0.000   0.000   0.000  -0.995
 -0.000   0.000   0.000   0.000  -0.000  -0.000  -0.000  -0.000
 -0.000   0.000   0.000   0.000   0.000  -0.000  -0.000   0.000
 -0.000   0.000  -0.000   0.000  -0.000   0.000  -0.000   0.000
 -0.000  -0.000   0.000  -0.000  -0.000   0.000  -0.000   0.000
 -0.000  -0.000   0.000  -0.000  -0.000   0.000  -0.000   0.000
 total augmentation occupancy for first ion, spin component:           1
  1.992   0.000   0.000  -0.026  -0.000   0.000   0.000   0.000   0.000   0.000   0.000   0.000   0.000   0.000   0.000  -0.000
  0.000   1.992   0.000   0.000  -0.026   0.000   0.000   0.000   0.000   0.000  -0.000   0.000   0.000   0.000   0.000   0.000
  0.000   0.000   1.992   0.000   0.000  -0.026   0.000   0.000   0.000   0.000   0.000   0.000   0.000   0.000   0.000  -0.000
 -0.026  -0.000   0.000   0.201  -0.000  -0.000   0.000  -0.000   0.000  -0.000   0.000   0.000   0.000   0.000  -0.000   0.000
 -0.000  -0.026   0.000  -0.000   0.201   0.000   0.000  -0.000   0.000  -0.000   0.000   0.000   0.000   0.000   0.000   0.000
 -0.000  -0.000  -0.026  -0.000   0.000   0.201  -0.000  -0.000   0.000  -0.000   0.000   0.000  -0.000   0.000   0.000   0.000
  0.000   0.000   0.000   0.000   0.000  -0.000   2.168   0.000  -0.000   0.000  -0.000  -1.220  -0.000   0.000   0.000  -0.000
  0.000   0.000   0.000   0.000   0.000  -0.000  -0.000   2.168  -0.000  -0.000   0.000  -0.000  -1.220   0.000   0.000   0.000
  0.000   0.000  -0.000   0.000   0.000  -0.000   0.000   0.000   3.406   0.000   0.000  -0.000  -0.000  -2.182  -0.000  -0.000
  0.000   0.000   0.000  -0.000   0.000   0.000   0.000   0.000  -0.000   2.168  -0.000   0.000  -0.000   0.000  -1.220  -0.000
  0.000   0.000   0.000   0.000   0.000   0.000  -0.000  -0.000   0.000  -0.000   3.406   0.000  -0.000   0.000   0.000  -2.182
  0.000   0.000   0.000   0.000  -0.000   0.000  -1.220   0.000  -0.000   0.000  -0.000   1.648   0.000  -0.000   0.000  -0.000
  0.000   0.000   0.000   0.000   0.000   0.000  -0.000  -1.220  -0.000  -0.000  -0.000  -0.000   1.648  -0.000  -0.000  -0.000
 -0.000   0.000   0.000   0.000   0.000   0.000  -0.000   0.000  -2.182   0.000   0.000   0.000  -0.000   2.222  -0.000   0.000
  0.000   0.000   0.000   0.000   0.000   0.000   0.000   0.000  -0.000  -1.220   0.000  -0.000  -0.000  -0.000   1.648  -0.000
  0.000   0.000   0.000   0.000  -0.000   0.000  -0.000   0.000   0.000  -0.000  -2.182   0.000  -0.000   0.000  -0.000   2.222
  0.000   0.000   0.000   0.000   0.000   0.000   0.000  -0.000  -0.000   0.000  -0.000   0.000   0.000   0.000  -0.000   0.000
 -0.000  -0.000  -0.000   0.000   0.000  -0.000  -0.000   0.000  -0.000  -0.000  -0.000  -0.000   0.000   0.000   0.000   0.000
 total augmentation occupancy for first ion, spin component:           2
 -0.002   0.000   0.000  -0.009   0.000   0.000   0.000   0.000   0.000   0.000   0.000   0.000   0.000  -0.000   0.000   0.000
  0.000  -0.002   0.000  -0.000  -0.009  -0.000   0.000   0.000   0.000   0.000   0.000   0.000   0.000   0.000   0.000   0.000
  0.000   0.000  -0.002  -0.000   0.000  -0.009   0.000   0.000  -0.000   0.000   0.000   0.000   0.000   0.000   0.000  -0.000
 -0.009  -0.000  -0.000  -0.020  -0.000   0.000   0.000   0.000   0.000   0.000   0.000   0.000   0.000  -0.000   0.000  -0.000
  0.000  -0.009   0.000   0.000  -0.020   0.000  -0.000   0.000   0.000   0.000   0.000   0.000   0.000   0.000   0.000   0.000
  0.000  -0.000  -0.009   0.000  -0.000  -0.020   0.000   0.000   0.000   0.000   0.000   0.000   0.000   0.000   0.000  -0.000
  0.000   0.000   0.000  -0.000   0.000   0.000   1.759  -0.000  -0.000   0.000   0.000  -0.661   0.000   0.000   0.000   0.000
  0.000   0.000   0.000  -0.000   0.000   0.000  -0.000   1.759  -0.000  -0.000   0.000  -0.000  -0.661  -0.000   0.000   0.000
  0.000   0.000   0.000   0.000   0.000   0.000   0.000  -0.000   2.822   0.000   0.000  -0.000  -0.000  -1.163  -0.000  -0.000
  0.000   0.000   0.000  -0.000  -0.000  -0.000   0.000  -0.000   0.000   1.759   0.000  -0.000  -0.000  -0.000  -0.661  -0.000
  0.000  -0.000   0.000   0.000   0.000   0.000  -0.000  -0.000   0.000  -0.000   2.822   0.000  -0.000   0.000  -0.000  -1.163
  0.000   0.000   0.000   0.000  -0.000   0.000  -0.661  -0.000   0.000  -0.000   0.000  -0.006  -0.000   0.000   0.000   0.000
  0.000   0.000   0.000   0.000   0.000   0.000   0.000  -0.661  -0.000   0.000  -0.000  -0.000  -0.006   0.000   0.000  -0.000
  0.000   0.000   0.000   0.000   0.000   0.000   0.000  -0.000  -1.163  -0.000  -0.000   0.000  -0.000   0.239  -0.000   0.000
  0.000   0.000   0.000   0.000   0.000   0.000   0.000   0.000   0.000  -0.661  -0.000  -0.000   0.000  -0.000  -0.006   0.000
  0.000   0.000  -0.000   0.000   0.000   0.000  -0.000   0.000   0.000  -0.000  -1.163   0.000  -0.000   0.000   0.000   0.239
  0.000   0.000   0.000   0.000   0.000   0.000  -0.000  -0.000  -0.000  -0.000  -0.000  -0.000  -0.000   0.000   0.000  -0.000
 -0.000  -0.000  -0.000   0.000   0.000   0.000   0.000   0.000  -0.000  -0.000  -0.000   0.000   0.000   0.000  -0.000  -0.000


------------------------ aborting loop because EDIFF is reached ----------------------------------------


 


 total charge     
 
# of ion       s       p       d       tot
------------------------------------------
    1        0.385   6.378   6.075  12.837
    2        0.385   6.378   6.075  12.837
--------------------------------------------------
tot          0.770  12.756  12.149  25.674
 


 magnetization (x)
 
# of ion       s       p       d       tot
------------------------------------------
    1       -0.008  -0.042   2.292   2.243
    2       -0.008  -0.042   2.292   2.243
--------------------------------------------------
tot         -0.015  -0.083   4.584   4.485
 
    CHARGE:  cpu time    0.0136: real time    0.0137
    FORLOC:  cpu time    0.0001: real time    0.0001
    FORNL :  cpu time    0.0892: real time    0.0894
    STRESS:  cpu time    0.2647: real time    0.2654
    FORCOR:  cpu time    0.0056: real time    0.0056
    FORHAR:  cpu time    0.0007: real time    0.0008
    MIXING:  cpu time    0.0005: real time    0.0005
    OFIELD:  cpu time    0.0000: real time    0.0000

  FORCE on cell =-STRESS in cart. coord.  units (eV):
  Direction    XX          YY          ZZ          XY          YZ          ZX
  --------------------------------------------------------------------------------------
  Alpha Z   218.87049   218.87049   218.87049
  Ewald   -1205.52018 -1205.52018 -1205.52018    -0.00000    -0.00000    -0.00000
  Hartree   363.30779   363.30779   363.30779    -0.00000    -0.00000    -0.00000
  E(xc)    -179.77944  -179.77944  -179.77944     0.00000    -0.00000    -0.00000
  Local     289.63828   289.63828   289.63828     0.00000     0.00000     0.00000
  n-local   -60.19777   -54.19998   -50.58918     2.76454    -1.55502     0.58908
  augment   285.42966   285.42966   285.42966    -0.00000    -0.00000     0.00000
  Kinetic   283.98735   282.55644   281.79466     2.97125    -0.74751    -0.10010
  Fock        0.00000     0.00000     0.00000     0.00000     0.00000     0.00000
  -------------------------------------------------------------------------------------
  Total      -0.26957    -0.26957    -0.26957     0.00000     0.00000    -0.00000
  in kB     -18.85374   -18.85374   -18.85374     0.00000     0.00000    -0.00000
  external pressure =      -18.85 kB  Pullay stress =        0.00 kB


 VOLUME and BASIS-vectors are now :
 -----------------------------------------------------------------------------
  energy-cutoff  :      500.00
  volume of cell :       22.91
      direct lattice vectors                 reciprocal lattice vectors
     2.840052000  0.000000000  0.000000000     0.352106229  0.000000000  0.000000000
     0.000000000  2.840052000  0.000000000     0.000000000  0.352106229  0.000000000
     0.000000000  0.000000000  2.840052000     0.000000000  0.000000000  0.352106229

  length of vectors
     2.840052000  2.840052000  2.840052000     0.352106229  0.352106229  0.352106229


 FORCES acting on ions
    electron-ion (+dipol)            ewald-force                    non-local-force                 convergence-correction
 -----------------------------------------------------------------------------------------------
   -.151E-13 -.261E-13 -.527E-13   -.529E-15 -.103E-14 -.897E-14   0.000E+00 0.000E+00 0.000E+00   -.557E-13 0.207E-13 -.241E-14
   0.816E-12 0.135E-11 -.581E-11   0.472E-14 0.447E-14 0.926E-14   0.000E+00 -.323E-26 0.000E+00   0.524E-13 -.963E-14 -.951E-14
 -----------------------------------------------------------------------------------------------
   0.801E-12 0.133E-11 -.586E-11   0.419E-14 0.343E-14 0.284E-15   0.000E+00 -.323E-26 0.000E+00   -.329E-14 0.111E-13 -.119E-13
 
 
 POSITION                                       TOTAL-FORCE (eV/Angst)
 -----------------------------------------------------------------------------------
      0.00000      0.00000      0.00000        -0.000000     -0.000000     -0.000000
      1.42003      1.42003      1.42003         0.000000      0.000000      0.000000
 -----------------------------------------------------------------------------------
    total drift:                                0.000000      0.000000     -0.000000


--------------------------------------------------------------------------------------------------------



  FREE ENERGIE OF THE ION-ELECTRON SYSTEM (eV)
  ---------------------------------------------------
  free  energy   TOTEN  =       -16.51230695 eV

  energy  without entropy=      -16.51230695  energy(sigma->0) =      -16.51230695
 


--------------------------------------------------------------------------------------------------------


    POTLOK:  cpu time    0.0109: real time    0.0109


--------------------------------------------------------------------------------------------------------


     LOOP+:  cpu time    7.8759: real time    7.9035
    4ORBIT:  cpu time    0.0000: real time    0.0000
 


 total charge     
 
# of ion       s       p       d       tot
------------------------------------------
    1        0.385   6.378   6.075  12.837
    2        0.385   6.378   6.075  12.837
--------------------------------------------------
tot          0.770  12.756  12.149  25.674
 


 magnetization (x)
 
# of ion       s       p       d       tot
------------------------------------------
    1       -0.008  -0.042   2.292   2.243
    2       -0.008  -0.042   2.292   2.243
--------------------------------------------------
tot         -0.015  -0.083   4.584   4.485
 
 BZINTS: Fermi energy:  9.622838; 28.000000 electrons
         Band energy:-399.259811;  BLOECHL correction: -0.034713

 total amount of memory used by VASP MPI-rank0    32642. kBytes
=======================================================================

   base      :      30000. kBytes
   nonlr-proj:        948. kBytes
   fftplans  :        261. kBytes
   grid      :        623. kBytes
   one-center:         31. kBytes
   wavefun   :        779. kBytes
 
  
  
 General timing and accounting informations for this job:
 ========================================================
  
                  Total CPU time used (sec):        8.589
                            User time (sec):        8.447
                          System time (sec):        0.142
                         Elapsed time (sec):        8.639
  
                   Maximum memory used (kb):       54064.
                   Average memory used (kb):           0.
  
                          Minor page faults:        13096
                          Major page faults:            0
                 Voluntary context switches:          157
