       N       E                     dE             d eps       ncg     rms          rms(c)
DAV:   1     0.267815935575E+03    0.26782E+03   -0.24167E+04 93936   0.264E+03
DAV:   2    -0.819384304110E+01   -0.27601E+03   -0.26474E+03 95172   0.487E+02
DAV:   3    -0.162007895342E+02   -0.80069E+01   -0.79891E+01101568   0.889E+01
DAV:   4    -0.162717685997E+02   -0.70979E-01   -0.70975E-01108576   0.800E+00
DAV:   5    -0.162730862864E+02   -0.13177E-02   -0.13177E-02101664   0.103E+00    0.249E+01
DAV:   6    -0.164619316816E+02   -0.18885E+00   -0.74515E+00 94716   0.398E+01    0.686E+00
DAV:   7    -0.165140128315E+02   -0.52081E-01   -0.61641E-01 95232   0.990E+00    0.433E+00
DAV:   8    -0.165241396226E+02   -0.10127E-01   -0.14787E-02105060   0.147E+00    0.137E+00
DAV:   9    -0.165157982149E+02    0.83414E-02   -0.50715E-03102036   0.884E-01    0.346E-01
DAV:  10    -0.165154645653E+02    0.33365E-03   -0.21851E-03 96828   0.607E-01    0.439E-02
DAV:  11    -0.165155102113E+02   -0.45646E-04   -0.56199E-05 99984   0.709E-02    0.249E-02
DAV:  12    -0.165155080845E+02    0.21268E-05   -0.50152E-06108180   0.245E-02    0.105E-02
DAV:  13    -0.165155091443E+02   -0.10598E-05   -0.20419E-06 98292   0.149E-02    0.155E-03
DAV:  14    -0.165155093935E+02   -0.24921E-06   -0.99290E-08 90624   0.283E-03    0.631E-04
DAV:  15    -0.165155093710E+02    0.22501E-07   -0.72905E-09 50064   0.101E-03
   1 F= -.16515509E+02 E0= -.16515509E+02  d E =0.000000E+00  mag=     4.4309
