=========================================
SLURM_JOB_ID = 63599081
SLURM_JOB_NODELIST = lnode13
SLURM_GPUS = 
SLURM_CPUS_ON_NODE = 8
SLURM_JOB_PARTITION = lenovo
SLURM_TASK_PID = 839085
CUDA_VISIBLE_DEVICES = 
==========================================
 running on    8 total cores
 distrk:  each k-point on    8 cores,    1 groups
 distr:  one band on    4 cores,    2 groups
 using from now: INCAR     
 vasp.5.4.4.18Apr17-6-g9f103f2a35 (build Apr 28 2018 00:24:27) complex          
  
 POSCAR found type information on POSCAR  Fe
 POSCAR found :  1 types and       2 ions
 scaLAPACK will be used
 LDA part: xc-table for Pade appr. of Perdew
 POSCAR, INCAR and KPOINTS ok, starting setup
 FFT: planning ...
 WAVECAR not read
 entering main loop
       N       E                     dE             d eps       ncg     rms          rms(c)
DAV:   1     0.202292977989E+03    0.20229E+03   -0.12192E+04  3792   0.138E+03
DAV:   2    -0.647800071111E+01   -0.20877E+03   -0.19747E+03  3424   0.354E+02
DAV:   3    -0.150655109536E+02   -0.85875E+01   -0.85667E+01  3600   0.806E+01
DAV:   4    -0.151291074070E+02   -0.63596E-01   -0.63594E-01  3720   0.670E+00
DAV:   5    -0.151300009948E+02   -0.89359E-03   -0.89359E-03  3608   0.730E-01    0.248E+01
DAV:   6    -0.152090761409E+02   -0.79075E-01   -0.70034E+00  3504   0.386E+01    0.645E+00
DAV:   7    -0.152871113734E+02   -0.78035E-01   -0.56030E-01  3480   0.908E+00    0.415E+00
DAV:   8    -0.153018380557E+02   -0.14727E-01   -0.13750E-02  3624   0.137E+00    0.139E+00
DAV:   9    -0.152931899674E+02    0.86481E-02   -0.45038E-03  3576   0.818E-01    0.339E-01
DAV:  10    -0.152930184021E+02    0.17157E-03   -0.23414E-03  3448   0.589E-01    0.404E-02
DAV:  11    -0.152930621737E+02   -0.43772E-04   -0.64412E-05  3528   0.631E-02    0.232E-02
DAV:  12    -0.152930632375E+02   -0.10638E-05   -0.18560E-06  3264   0.150E-02    0.812E-03
DAV:  13    -0.152930626101E+02    0.62743E-06   -0.11611E-06  2528   0.109E-02
   1 F= -.15293063E+02 E0= -.15272636E+02  d E =-.408534E-01  mag=     4.4298
 writing wavefunctions
