=========================================
SLURM_JOB_ID = 31798341
SLURM_JOB_NODELIST = lnode35
SLURM_GPUS = 
SLURM_CPUS_ON_NODE = 8
SLURM_JOB_PARTITION = lenovo
SLURM_TASK_PID = 2154512
CUDA_VISIBLE_DEVICES = 
==========================================
 running on    8 total cores
 distrk:  each k-point on    8 cores,    1 groups
 distr:  one band on    4 cores,    2 groups
 using from now: INCAR     
 vasp.5.4.4.18Apr17-6-g9f103f2a35 (build Apr 28 2018 00:24:27) complex          
  
 POSCAR found type information on POSCAR  Fe
 POSCAR found :  1 types and       8 ions
 scaLAPACK will be used
 LDA part: xc-table for Pade appr. of Perdew
 POSCAR, INCAR and KPOINTS ok, starting setup
 FFT: planning ...
 WAVECAR not read
 entering main loop
       N       E                     dE             d eps       ncg     rms          rms(c)
DAV:   1     0.538418887792E+03    0.53842E+03   -0.27402E+04  9752   0.220E+03
DAV:   2    -0.126695367850E+02   -0.55109E+03   -0.53831E+03  9728   0.461E+02
DAV:   3    -0.672735266249E+02   -0.54604E+02   -0.49681E+02 13914   0.178E+02
DAV:   4    -0.737436809263E+02   -0.64702E+01   -0.58829E+01 16012   0.555E+01
DAV:   5    -0.741752075567E+02   -0.43153E+00   -0.40256E+00 15196   0.121E+01    0.318E+01
RMM:   6    -0.643969620148E+02    0.97782E+01   -0.97688E+01  9728   0.108E+02    0.158E+01
RMM:   7    -0.700891932072E+02   -0.56922E+01   -0.32016E+01 10037   0.495E+01    0.301E+01
RMM:   8    -0.644442605098E+02    0.56449E+01   -0.13982E+01  9729   0.390E+01    0.100E+01
RMM:   9    -0.652580980811E+02   -0.81384E+00   -0.76419E+00 10485   0.230E+01    0.124E+01
RMM:  10    -0.642319807024E+02    0.10261E+01   -0.19650E+00  9778   0.151E+01    0.284E+00
RMM:  11    -0.643011502124E+02   -0.69170E-01   -0.95228E-01 14623   0.384E+00    0.205E+00
RMM:  12    -0.642944038720E+02    0.67463E-02   -0.10556E-01 12290   0.198E+00    0.750E-01
RMM:  13    -0.643017311984E+02   -0.73273E-02   -0.72952E-02 15080   0.967E-01    0.356E-01
RMM:  14    -0.643021451892E+02   -0.41399E-03   -0.88379E-03 13601   0.434E-01    0.148E-01
RMM:  15    -0.643022281187E+02   -0.82930E-04   -0.30393E-03 14923   0.183E-01    0.758E-02
RMM:  16    -0.643021726616E+02    0.55457E-04   -0.45407E-04 14671   0.847E-02    0.532E-02
RMM:  17    -0.643021368159E+02    0.35846E-04   -0.18756E-04 14159   0.627E-02    0.231E-02
RMM:  18    -0.643021260986E+02    0.10717E-04   -0.90038E-05 13540   0.434E-02    0.278E-02
RMM:  19    -0.643021214065E+02    0.46921E-05   -0.20527E-05 11636   0.229E-02    0.134E-02
RMM:  20    -0.643021142261E+02    0.71804E-05   -0.15866E-05 11465   0.210E-02    0.479E-03
RMM:  21    -0.643021142196E+02    0.64801E-08   -0.22410E-06  6915   0.850E-03
   1 F= -.64302114E+02 E0= -.64302114E+02  d E =0.000000E+00  mag=     0.0000
