 vasp.5.4.4.18Apr17-6-g9f103f2a35 (build Apr 28 2018 00:24:27) complex          
  
 executed on             LinuxIFC date 2021.03.24  17:58:39
 running on    8 total cores
 distrk:  each k-point on    8 cores,    1 groups
 distr:  one band on NCORES_PER_BAND=   4 cores,    2 groups


--------------------------------------------------------------------------------------------------------


 INCAR:
 POTCAR:    PAW_PBE Fe 06Sep2000                  
 POTCAR:    PAW_PBE Fe 06Sep2000                  
   SHA256 =  cd5a22d9368cc8b5cc476bea79732366149640da08ac9009b0e1b7fc627eea28 Fe
   COPYR  = (c) Copyright 06Sep2000 Georg Kresse                                
   COPYR  = This file is part of the software VASP. Any use, copying, and all ot
   COPYR  = If you do not have a valid VASP license, you may not use, copy or di
   VRHFIN =Fe:  d7 s1                                                           
   LEXCH  = PE                                                                  
   EATOM  =   594.3153 eV,   43.6809 Ry                                         
                                                                                
   TITEL  = PAW_PBE Fe 06Sep2000                                                
   LULTRA =        F    use ultrasoft PP ?                                      
   IUNSCR =        1    unscreen: 0-lin 1-nonlin 2-no                           
   RPACOR =    2.000    partial core radius                                     
   POMASS =   55.847; ZVAL   =    8.000    mass and valenz                      
   RCORE  =    2.300    outmost cutoff radius                                   
   RWIGS  =    2.460; RWIGS  =    1.302    wigner-seitz radius (au A)           
   ENMAX  =  267.882; ENMIN  =  200.911 eV                                      
   RCLOC  =    1.701    cutoff for local pot                                    
   LCOR   =        T    correct aug charges                                     
   LPAW   =        T    paw PP                                                  
   EAUG   =  511.368                                                            
   DEXC   =    0.000                                                            
   RMAX   =    2.356    core radius for proj-oper                               
   RAUG   =    1.300    factor for augmentation sphere                          
   RDEP   =    2.442    radius for radial grids                                 
   RDEPT  =    1.890    core radius for aug-charge                              
                                                                                
   Atomic configuration                                                         
    9 entries                                                                   
     n  l   j            E        occ.                                          
     1  0  0.50     -6993.8440   2.0000                                         
     2  0  0.50      -814.6047   2.0000                                         
     2  1  1.50      -693.3689   6.0000                                         
     3  0  0.50       -89.4732   2.0000                                         
     3  1  1.50       -55.6373   6.0000                                         
     3  2  2.50        -3.8151   7.0000                                         
     4  0  0.50        -4.2551   1.0000                                         
     4  1  1.50        -3.4015   0.0000                                         
     4  3  2.50        -1.3606   0.0000                                         
   Description                                                                  
     l       E           TYP  RCUT    TYP  RCUT                                 
     2     -3.8151135     23  2.300                                             
     2     -5.1756961     23  2.300                                             
     0     -4.2550963     23  2.300                                             
     0      7.2035603     23  2.300                                             
     1     -2.7211652     23  2.300                                             
     1     18.4316424     23  2.300                                             
  local pseudopotential read in
  partial core-charges read in
  partial kinetic energy density read in
  atomic valenz-charges read in
  non local Contribution for L=           2  read in
    real space projection operators read in
  non local Contribution for L=           2  read in
    real space projection operators read in
  non local Contribution for L=           0  read in
    real space projection operators read in
  non local Contribution for L=           0  read in
    real space projection operators read in
  non local Contribution for L=           1  read in
    real space projection operators read in
  non local Contribution for L=           1  read in
    real space projection operators read in
    PAW grid and wavefunctions read in
 
   number of l-projection  operators is LMAX  =           6
   number of lm-projection operators is LMMAX =          18
 
  PAW_PBE Fe 06Sep2000                  :
 energy of atom  1       EATOM= -594.3153
 kinetic energy error for atom=    0.0026 (will be added to EATOM!!)
 
 
 POSCAR: Fe2 str #: 18                           
  positions in direct lattice
  No initial velocities read in
 exchange correlation table for  LEXCH =        8
   RHO(1)=    0.500       N(1)  =     2000
   RHO(2)=  100.500       N(2)  =     4000
 


--------------------------------------------------------------------------------------------------------


 ion  position               nearest neighbor table
   1  0.000  0.000  0.000-   4 2.45   6 2.45   8 2.45   6 2.45   4 2.45   6 2.45   8 2.45   6 2.45
                             5 2.83   2 2.83   5 2.83   2 2.83
   2  0.000  0.500  0.250-   4 2.45   6 2.45   7 2.45   4 2.45   4 2.45   6 2.45   7 2.45   4 2.45
                             1 2.83   1 2.83   3 2.83   3 2.83
   3  0.000  0.000  0.500-   4 2.45   7 2.45   8 2.45   7 2.45   4 2.45   7 2.45   8 2.45   7 2.45
                             5 2.83   2 2.83   5 2.83   2 2.83
   4  0.500  0.000  0.250-   1 2.45   2 2.45   3 2.45   2 2.45   1 2.45   2 2.45   3 2.45   2 2.45
                             7 2.83   6 2.83   6 2.83   7 2.83
   5  0.000  0.500  0.750-   6 2.45   7 2.45   8 2.45   8 2.45   6 2.45   7 2.45   8 2.45   8 2.45
                             1 2.83   1 2.83   3 2.83   3 2.83
   6  0.500  0.500  0.000-   1 2.45   2 2.45   5 2.45   1 2.45   1 2.45   2 2.45   5 2.45   1 2.45
                             8 2.83   4 2.83   4 2.83   8 2.83
   7  0.500  0.500  0.500-   2 2.45   3 2.45   5 2.45   3 2.45   2 2.45   3 2.45   5 2.45   3 2.45
                             8 2.83   4 2.83   4 2.83   8 2.83
   8  0.500  0.000  0.750-   1 2.45   3 2.45   5 2.45   5 2.45   1 2.45   3 2.45   5 2.45   5 2.45
                             7 2.83   6 2.83   6 2.83   7 2.83
 
  LATTYP: Found a simple orthorhombic cell.
 ALAT       =     2.8280590000
 B/A-ratio  =     1.4142135624
 C/A-ratio  =     2.8284271247
  
  Lattice vectors:
  
 A1 = (   2.8280590000,   0.0000000000,   0.0000000000)
 A2 = (   0.0000000000,   2.8280590000,   2.8280590000)
 A3 = (   0.0000000000,  -5.6561180000,   5.6561180000)


Analysis of symmetry for initial positions (statically):
=====================================================================
 Subroutine PRICEL returns following result:
 
  LATTYP: Found a body centered cubic cell.
 ALAT       =     2.8280590000
  
  Lattice vectors:
  
 A1 = (   1.4140295000,  -1.4140295000,   1.4140295000)
 A2 = (  -1.4140295000,   1.4140295000,   1.4140295000)
 A3 = (  -1.4140295000,  -1.4140295000,  -1.4140295000)
 
   8 primitive cells build up your supercell.
 

 Routine SETGRP: Setting up the symmetry group for a 
 simple orthorhombic supercell.


 Subroutine GETGRP returns: Found  8 space group operations
 (whereof  8 operations were pure point group operations)
 out of a pool of  8 trial point group operations.


The static configuration has the point symmetry D_2h.


Analysis of symmetry for dynamics (positions and initial velocities):
=====================================================================
 Subroutine PRICEL returns following result:
 
  LATTYP: Found a body centered cubic cell.
 ALAT       =     2.8280590000
  
  Lattice vectors:
  
 A1 = (   1.4140295000,  -1.4140295000,   1.4140295000)
 A2 = (  -1.4140295000,   1.4140295000,   1.4140295000)
 A3 = (  -1.4140295000,  -1.4140295000,  -1.4140295000)
 
   8 primitive cells build up your supercell.
 

 Routine SETGRP: Setting up the symmetry group for a 
 simple orthorhombic supercell.


 Subroutine GETGRP returns: Found  8 space group operations
 (whereof  8 operations were pure point group operations)
 out of a pool of  8 trial point group operations.


The dynamic configuration has the point symmetry D_2h.


Analysis of structural, dynamic, and magnetic symmetry:
=====================================================================
 Subroutine PRICEL returns following result:
 
  LATTYP: Found a body centered orthorhombic cell.
 ALAT       =     2.8280590000
 B/A-ratio  =     1.4142135624
 C/A-ratio  =     2.8284271247
  
  Lattice vectors:
  
 A1 = (   1.4140295000,  -4.2420885000,   1.4140295000)
 A2 = (  -1.4140295000,  -1.4140295000,   4.2420885000)
 A3 = (  -1.4140295000,   1.4140295000,  -4.2420885000)
 
   2 primitive cells build up your supercell.
 

 Routine SETGRP: Setting up the symmetry group for a 
 simple orthorhombic supercell.


 Subroutine GETGRP returns: Found  8 space group operations
 (whereof  4 operations were pure point group operations)
 out of a pool of  8 trial point group operations.


The magnetic configuration has the point symmetry C_2v.
 The point group associated with its full space group is D_2h.


 Subroutine INISYM returns: Found  8 space group operations
 (whereof  4 operations are pure point group operations),
 and found     2 'primitive' translations

 
 
 KPOINTS: pymatgen v2021.2.8.1 with grid density =

Automatic generation of k-mesh.
Space group operators:
 irot       det(A)        alpha          n_x          n_y          n_z        tau_x        tau_y        tau_z
    1     1.000000     0.000000     1.000000     0.000000     0.000000     0.000000     0.000000     0.000000
    2     1.000000   180.000000     0.000000    -0.707107     0.707107     0.000000     0.000000     0.000000
    3    -1.000000   180.000000     0.000000     0.707107     0.707107     0.000000     0.000000     0.000000
    4    -1.000000   180.000000     1.000000     0.000000     0.000000     0.000000     0.000000     0.000000
    5    -1.000000     0.000000     1.000000     0.000000     0.000000     0.000000     0.000000     0.500000
    6    -1.000000   180.000000     0.000000    -0.707107     0.707107     0.000000     0.000000     0.500000
    7     1.000000   180.000000     0.000000     0.707107     0.707107     0.000000     0.000000     0.500000
    8     1.000000   180.000000     1.000000     0.000000     0.000000     0.000000     0.000000     0.500000
 
 Subroutine IBZKPT returns following result:
 ===========================================
 
 Found     64 irreducible k-points:
 
 Following reciprocal coordinates:
            Coordinates               Weight
  0.062500  0.062500  0.062500      8.000000
  0.187500  0.062500  0.062500      8.000000
  0.312500  0.062500  0.062500      8.000000
  0.437500  0.062500  0.062500      8.000000
  0.062500  0.187500  0.062500      8.000000
  0.187500  0.187500  0.062500      8.000000
  0.312500  0.187500  0.062500      8.000000
  0.437500  0.187500  0.062500      8.000000
  0.062500  0.312500  0.062500      8.000000
  0.187500  0.312500  0.062500      8.000000
  0.312500  0.312500  0.062500      8.000000
  0.437500  0.312500  0.062500      8.000000
  0.062500  0.437500  0.062500      8.000000
  0.187500  0.437500  0.062500      8.000000
  0.312500  0.437500  0.062500      8.000000
  0.437500  0.437500  0.062500      8.000000
  0.062500  0.062500  0.187500      8.000000
  0.187500  0.062500  0.187500      8.000000
  0.312500  0.062500  0.187500      8.000000
  0.437500  0.062500  0.187500      8.000000
  0.062500  0.187500  0.187500      8.000000
  0.187500  0.187500  0.187500      8.000000
  0.312500  0.187500  0.187500      8.000000
  0.437500  0.187500  0.187500      8.000000
  0.062500  0.312500  0.187500      8.000000
  0.187500  0.312500  0.187500      8.000000
  0.312500  0.312500  0.187500      8.000000
  0.437500  0.312500  0.187500      8.000000
  0.062500  0.437500  0.187500      8.000000
  0.187500  0.437500  0.187500      8.000000
  0.312500  0.437500  0.187500      8.000000
  0.437500  0.437500  0.187500      8.000000
  0.062500  0.062500  0.312500      8.000000
  0.187500  0.062500  0.312500      8.000000
  0.312500  0.062500  0.312500      8.000000
  0.437500  0.062500  0.312500      8.000000
  0.062500  0.187500  0.312500      8.000000
  0.187500  0.187500  0.312500      8.000000
  0.312500  0.187500  0.312500      8.000000
  0.437500  0.187500  0.312500      8.000000
  0.062500  0.312500  0.312500      8.000000
  0.187500  0.312500  0.312500      8.000000
  0.312500  0.312500  0.312500      8.000000
  0.437500  0.312500  0.312500      8.000000
  0.062500  0.437500  0.312500      8.000000
  0.187500  0.437500  0.312500      8.000000
  0.312500  0.437500  0.312500      8.000000
  0.437500  0.437500  0.312500      8.000000
  0.062500  0.062500  0.437500      8.000000
  0.187500  0.062500  0.437500      8.000000
  0.312500  0.062500  0.437500      8.000000
  0.437500  0.062500  0.437500      8.000000
  0.062500  0.187500  0.437500      8.000000
  0.187500  0.187500  0.437500      8.000000
  0.312500  0.187500  0.437500      8.000000
  0.437500  0.187500  0.437500      8.000000
  0.062500  0.312500  0.437500      8.000000
  0.187500  0.312500  0.437500      8.000000
  0.312500  0.312500  0.437500      8.000000
  0.437500  0.312500  0.437500      8.000000
  0.062500  0.437500  0.437500      8.000000
  0.187500  0.437500  0.437500      8.000000
  0.312500  0.437500  0.437500      8.000000
  0.437500  0.437500  0.437500      8.000000
 
 Following cartesian coordinates:
            Coordinates               Weight
  0.022100  0.005525  0.016575      8.000000
  0.066300  0.005525  0.016575      8.000000
  0.110500  0.005525  0.016575      8.000000
  0.154700  0.005525  0.016575      8.000000
  0.022100  0.027625  0.038675      8.000000
  0.066300  0.027625  0.038675      8.000000
  0.110500  0.027625  0.038675      8.000000
  0.154700  0.027625  0.038675      8.000000
  0.022100  0.049725  0.060775      8.000000
  0.066300  0.049725  0.060775      8.000000
  0.110500  0.049725  0.060775      8.000000
  0.154700  0.049725  0.060775      8.000000
  0.022100  0.071825  0.082875      8.000000
  0.066300  0.071825  0.082875      8.000000
  0.110500  0.071825  0.082875      8.000000
  0.154700  0.071825  0.082875      8.000000
  0.022100 -0.005525  0.027625      8.000000
  0.066300 -0.005525  0.027625      8.000000
  0.110500 -0.005525  0.027625      8.000000
  0.154700 -0.005525  0.027625      8.000000
  0.022100  0.016575  0.049725      8.000000
  0.066300  0.016575  0.049725      8.000000
  0.110500  0.016575  0.049725      8.000000
  0.154700  0.016575  0.049725      8.000000
  0.022100  0.038675  0.071825      8.000000
  0.066300  0.038675  0.071825      8.000000
  0.110500  0.038675  0.071825      8.000000
  0.154700  0.038675  0.071825      8.000000
  0.022100  0.060775  0.093925      8.000000
  0.066300  0.060775  0.093925      8.000000
  0.110500  0.060775  0.093925      8.000000
  0.154700  0.060775  0.093925      8.000000
  0.022100 -0.016575  0.038675      8.000000
  0.066300 -0.016575  0.038675      8.000000
  0.110500 -0.016575  0.038675      8.000000
  0.154700 -0.016575  0.038675      8.000000
  0.022100  0.005525  0.060775      8.000000
  0.066300  0.005525  0.060775      8.000000
  0.110500  0.005525  0.060775      8.000000
  0.154700  0.005525  0.060775      8.000000
  0.022100  0.027625  0.082875      8.000000
  0.066300  0.027625  0.082875      8.000000
  0.110500  0.027625  0.082875      8.000000
  0.154700  0.027625  0.082875      8.000000
  0.022100  0.049725  0.104975      8.000000
  0.066300  0.049725  0.104975      8.000000
  0.110500  0.049725  0.104975      8.000000
  0.154700  0.049725  0.104975      8.000000
  0.022100 -0.027625  0.049725      8.000000
  0.066300 -0.027625  0.049725      8.000000
  0.110500 -0.027625  0.049725      8.000000
  0.154700 -0.027625  0.049725      8.000000
  0.022100 -0.005525  0.071825      8.000000
  0.066300 -0.005525  0.071825      8.000000
  0.110500 -0.005525  0.071825      8.000000
  0.154700 -0.005525  0.071825      8.000000
  0.022100  0.016575  0.093925      8.000000
  0.066300  0.016575  0.093925      8.000000
  0.110500  0.016575  0.093925      8.000000
  0.154700  0.016575  0.093925      8.000000
  0.022100  0.038675  0.116025      8.000000
  0.066300  0.038675  0.116025      8.000000
  0.110500  0.038675  0.116025      8.000000
  0.154700  0.038675  0.116025      8.000000
 
 TETIRR: Found   1412 inequivalent tetrahedra from     3072


--------------------------------------------------------------------------------------------------------




 Dimension of arrays:
   k-points           NKPTS =     64   k-points in BZ     NKDIM =     64   number of bands    NBANDS=     38
   number of dos      NEDOS =    301   number of ions     NIONS =      8
   non local maximal  LDIM  =      6   non local SUM 2l+1 LMDIM =     18
   total plane-waves  NPLWV =  43200
   max r-space proj   IRMAX =      1   max aug-charges    IRDMAX=  17206
   dimension x,y,z NGX =    24 NGY =   30 NGZ =   60
   dimension x,y,z NGXF=    48 NGYF=   60 NGZF=  120
   support grid    NGXF=    48 NGYF=   60 NGZF=  120
   ions per type =               8
   NGX,Y,Z   is equivalent  to a cutoff of  14.11, 12.47, 12.47 a.u.
   NGXF,Y,Z  is equivalent  to a cutoff of  28.22, 24.94, 24.94 a.u.

 SYSTEM =  "Fe-alpha"                              
 POSCAR =  Fe2 str #: 18                           

 Startparameter for this run:
   NWRITE =      2    write-flag & timer
   PREC   = accura    normal or accurate (medium, high low for compatibility)
   ISTART =      0    job   : 0-new  1-cont  2-samecut
   ICHARG =      2    charge: 1-file 2-atom 10-const
   ISPIN  =      2    spin polarized calculation?
   LNONCOLLINEAR =      F non collinear calculations
   LSORBIT =      F    spin-orbit coupling
   INIWAV =      1    electr: 0-lowe 1-rand  2-diag
   LASPH  =      T    aspherical Exc in radial PAW
   METAGGA=      F    non-selfconsistent MetaGGA calc.

 Electronic Relaxation 1
   ENCUT  =  520.0 eV  38.22 Ry    6.18 a.u.   5.26  7.44 14.87*2*pi/ulx,y,z
   ENINI  =  520.0     initial cutoff
   ENAUG  =  511.4 eV  augmentation charge cutoff
   NELM   =     60;   NELMIN=  2; NELMDL= -5     # of ELM steps 
   EDIFF  = 0.1E-05   stopping-criterion for ELM
   LREAL  =      F    real-space projection
   NLSPLINE    = F    spline interpolate recip. space projectors
   LCOMPAT=      F    compatible to vasp.4.4
   GGA_COMPAT  = T    GGA compatible to vasp.4.4-vasp.4.6
   LMAXPAW     = -100 max onsite density
   LMAXMIX     =    2 max onsite mixed and CHGCAR
   VOSKOWN=      0    Vosko Wilk Nusair interpolation
   ROPT   =    0.00000
 Ionic relaxation
   EDIFFG = 0.1E-04   stopping-criterion for IOM
   NSW    =      0    number of steps for IOM
   NBLOCK =      1;   KBLOCK =      1    inner block; outer block 
   IBRION =     -1    ionic relax: 0-MD 1-quasi-New 2-CG
   NFREE  =      1    steps in history (QN), initial steepest desc. (CG)
   ISIF   =      2    stress and relaxation
   IWAVPR =     10    prediction:  0-non 1-charg 2-wave 3-comb
   ISYM   =      2    0-nonsym 1-usesym 2-fastsym
   LCORR  =      T    Harris-Foulkes like correction to forces

   POTIM  = 0.5000    time-step for ionic-motion
   TEIN   =    0.0    initial temperature
   TEBEG  =    0.0;   TEEND  =   0.0 temperature during run
   SMASS  =  -3.00    Nose mass-parameter (am)
   estimated Nose-frequenzy (Omega)   =  0.10E-29 period in steps =****** mass=  -0.183E-27a.u.
   SCALEE = 1.0000    scale energy and forces
   NPACO  =    256;   APACO  = 16.0  distance and # of slots for P.C.
   PSTRESS=    0.0 pullay stress

  Mass of Ions in am
   POMASS =  55.85
  Ionic Valenz
   ZVAL   =   8.00
  Atomic Wigner-Seitz radii
   RWIGS  =  -1.00
  virtual crystal weights 
   VCA    =   1.00
   NELECT =      64.0000    total number of electrons
   NUPDOWN=      -1.0000    fix difference up-down

 DOS related values:
   EMIN   =  10.00;   EMAX   =-10.00  energy-range for DOS
   EFERMI =   0.00
   ISMEAR =    -5;   SIGMA  =   0.05  broadening in eV -4-tet -1-fermi 0-gaus

 Electronic relaxation 2 (details)
   IALGO  =     68    algorithm
   LDIAG  =      T    sub-space diagonalisation (order eigenvalues)
   LSUBROT=      F    optimize rotation matrix (better conditioning)
   TURBO    =      0    0=normal 1=particle mesh
   IRESTART =      0    0=no restart 2=restart with 2 vectors
   NREBOOT  =      0    no. of reboots
   NMIN     =      0    reboot dimension
   EREF     =   0.00    reference energy to select bands
   IMIX   =      4    mixing-type and parameters
     AMIX     =   0.40;   BMIX     =  1.00
     AMIX_MAG =   1.60;   BMIX_MAG =  1.00
     AMIN     =   0.10
     WC   =   100.;   INIMIX=   1;  MIXPRE=   1;  MAXMIX= -45

 Intra band minimization:
   WEIMIN = 0.0000     energy-eigenvalue tresh-hold
   EBREAK =  0.66E-08  absolut break condition
   DEPER  =   0.30     relativ break condition  

   TIME   =   0.40     timestep for ELM

  volume/ion in A,a.u.               =      11.31        76.32
  Fermi-wavevector in a.u.,A,eV,Ry     =   1.458679  2.756503 28.949715  2.127744
  Thomas-Fermi vector in A             =   2.575335
 
 Write flags
   LWAVE        =      F    write WAVECAR
   LDOWNSAMPLE  =      F    k-point downsampling of WAVECAR
   LCHARG       =      T    write CHGCAR
   LVTOT        =      F    write LOCPOT, total local potential
   LVHAR        =      F    write LOCPOT, Hartree potential only
   LELF         =      F    write electronic localiz. function (ELF)
   LORBIT       =     11    0 simple, 1 ext, 2 COOP (PROOUT), +10 PAW based schemes


 Dipole corrections
   LMONO  =      F    monopole corrections only (constant potential shift)
   LDIPOL =      F    correct potential (dipole corrections)
   IDIPOL =      0    1-x, 2-y, 3-z, 4-all directions 
   EPSILON=  1.0000000 bulk dielectric constant

 Exchange correlation treatment:
   GGA     =    --    GGA type
   LEXCH   =     8    internal setting for exchange type
   VOSKOWN=      0    Vosko Wilk Nusair interpolation
   LHFCALC =     F    Hartree Fock is set to
   LHFONE  =     F    Hartree Fock one center treatment
   AEXX    =    0.0000 exact exchange contribution

 Linear response parameters
   LEPSILON=     F    determine dielectric tensor
   LRPA    =     F    only Hartree local field effects (RPA)
   LNABLA  =     F    use nabla operator in PAW spheres
   LVEL    =     F    velocity operator in full k-point grid
   LINTERFAST=   F  fast interpolation
   KINTER  =     0    interpolate to denser k-point grid
   CSHIFT  =0.1000    complex shift for real part using Kramers Kronig
   OMEGAMAX=  -1.0    maximum frequency
   DEG_THRESHOLD= 0.2000000E-02 threshold for treating states as degnerate
   RTIME   =   -0.100 relaxation time in fs
  (WPLASMAI=    0.000 imaginary part of plasma frequency in eV, 0.658/RTIME)
   DFIELD  = 0.0000000 0.0000000 0.0000000 field for delta impulse in time
 
 Orbital magnetization related:
   ORBITALMAG=     F  switch on orbital magnetization
   LCHIMAG   =     F  perturbation theory with respect to B field
   DQ        =  0.001000  dq finite difference perturbation B field
   LLRAUG    =     F  two centre corrections for induced B field



--------------------------------------------------------------------------------------------------------


 Static calculation
 charge density and potential will be updated during run
 spin polarized calculation
 RMM-DIIS sequential band-by-band and
  variant of blocked Davidson during initial phase
 perform sub-space diagonalisation
    before iterative eigenvector-optimisation
 modified Broyden-mixing scheme, WC =      100.0
 initial mixing is a Kerker type mixing with AMIX =  0.4000 and BMIX =      1.0000
 Hartree-type preconditioning will be used
 using additional bands            6
 reciprocal scheme for non local part
 use partial core corrections
 calculate Harris-corrections to forces 
   (improved forces if not selfconsistent)
 use gradient corrections 
 use of overlap-Matrix (Vanderbilt PP)
 Fermi weights with tetrahedron method with Bloechl corrections


--------------------------------------------------------------------------------------------------------


  energy-cutoff  :      520.00
  volume of cell :       90.47
      direct lattice vectors                 reciprocal lattice vectors
     2.828059000  0.000000000  0.000000000     0.353599412  0.000000000  0.000000000
     0.000000000  2.828059000  2.828059000     0.000000000  0.176799706  0.176799706
     0.000000000 -5.656118000  5.656118000     0.000000000 -0.088399853  0.088399853

  length of vectors
     2.828059000  3.999479393  7.998958786     0.353599412  0.250032542  0.125016271


 
 k-points in units of 2pi/SCALE and weight: pymatgen v2021.2.8.1 with grid density =
   0.02209996  0.00552499  0.01657497       0.016
   0.06629989  0.00552499  0.01657497       0.016
   0.11049982  0.00552499  0.01657497       0.016
   0.15469974  0.00552499  0.01657497       0.016
   0.02209996  0.02762495  0.03867494       0.016
   0.06629989  0.02762495  0.03867494       0.016
   0.11049982  0.02762495  0.03867494       0.016
   0.15469974  0.02762495  0.03867494       0.016
   0.02209996  0.04972492  0.06077490       0.016
   0.06629989  0.04972492  0.06077490       0.016
   0.11049982  0.04972492  0.06077490       0.016
   0.15469974  0.04972492  0.06077490       0.016
   0.02209996  0.07182488  0.08287486       0.016
   0.06629989  0.07182488  0.08287486       0.016
   0.11049982  0.07182488  0.08287486       0.016
   0.15469974  0.07182488  0.08287486       0.016
   0.02209996 -0.00552499  0.02762495       0.016
   0.06629989 -0.00552499  0.02762495       0.016
   0.11049982 -0.00552499  0.02762495       0.016
   0.15469974 -0.00552499  0.02762495       0.016
   0.02209996  0.01657497  0.04972492       0.016
   0.06629989  0.01657497  0.04972492       0.016
   0.11049982  0.01657497  0.04972492       0.016
   0.15469974  0.01657497  0.04972492       0.016
   0.02209996  0.03867494  0.07182488       0.016
   0.06629989  0.03867494  0.07182488       0.016
   0.11049982  0.03867494  0.07182488       0.016
   0.15469974  0.03867494  0.07182488       0.016
   0.02209996  0.06077490  0.09392484       0.016
   0.06629989  0.06077490  0.09392484       0.016
   0.11049982  0.06077490  0.09392484       0.016
   0.15469974  0.06077490  0.09392484       0.016
   0.02209996 -0.01657497  0.03867494       0.016
   0.06629989 -0.01657497  0.03867494       0.016
   0.11049982 -0.01657497  0.03867494       0.016
   0.15469974 -0.01657497  0.03867494       0.016
   0.02209996  0.00552499  0.06077490       0.016
   0.06629989  0.00552499  0.06077490       0.016
   0.11049982  0.00552499  0.06077490       0.016
   0.15469974  0.00552499  0.06077490       0.016
   0.02209996  0.02762495  0.08287486       0.016
   0.06629989  0.02762495  0.08287486       0.016
   0.11049982  0.02762495  0.08287486       0.016
   0.15469974  0.02762495  0.08287486       0.016
   0.02209996  0.04972492  0.10497483       0.016
   0.06629989  0.04972492  0.10497483       0.016
   0.11049982  0.04972492  0.10497483       0.016
   0.15469974  0.04972492  0.10497483       0.016
   0.02209996 -0.02762495  0.04972492       0.016
   0.06629989 -0.02762495  0.04972492       0.016
   0.11049982 -0.02762495  0.04972492       0.016
   0.15469974 -0.02762495  0.04972492       0.016
   0.02209996 -0.00552499  0.07182488       0.016
   0.06629989 -0.00552499  0.07182488       0.016
   0.11049982 -0.00552499  0.07182488       0.016
   0.15469974 -0.00552499  0.07182488       0.016
   0.02209996  0.01657497  0.09392484       0.016
   0.06629989  0.01657497  0.09392484       0.016
   0.11049982  0.01657497  0.09392484       0.016
   0.15469974  0.01657497  0.09392484       0.016
   0.02209996  0.03867494  0.11602481       0.016
   0.06629989  0.03867494  0.11602481       0.016
   0.11049982  0.03867494  0.11602481       0.016
   0.15469974  0.03867494  0.11602481       0.016
 
 k-points in reciprocal lattice and weights: pymatgen v2021.2.8.1 with grid density =
   0.06250000  0.06250000  0.06250000       0.016
   0.18750000  0.06250000  0.06250000       0.016
   0.31250000  0.06250000  0.06250000       0.016
   0.43750000  0.06250000  0.06250000       0.016
   0.06250000  0.18750000  0.06250000       0.016
   0.18750000  0.18750000  0.06250000       0.016
   0.31250000  0.18750000  0.06250000       0.016
   0.43750000  0.18750000  0.06250000       0.016
   0.06250000  0.31250000  0.06250000       0.016
   0.18750000  0.31250000  0.06250000       0.016
   0.31250000  0.31250000  0.06250000       0.016
   0.43750000  0.31250000  0.06250000       0.016
   0.06250000  0.43750000  0.06250000       0.016
   0.18750000  0.43750000  0.06250000       0.016
   0.31250000  0.43750000  0.06250000       0.016
   0.43750000  0.43750000  0.06250000       0.016
   0.06250000  0.06250000  0.18750000       0.016
   0.18750000  0.06250000  0.18750000       0.016
   0.31250000  0.06250000  0.18750000       0.016
   0.43750000  0.06250000  0.18750000       0.016
   0.06250000  0.18750000  0.18750000       0.016
   0.18750000  0.18750000  0.18750000       0.016
   0.31250000  0.18750000  0.18750000       0.016
   0.43750000  0.18750000  0.18750000       0.016
   0.06250000  0.31250000  0.18750000       0.016
   0.18750000  0.31250000  0.18750000       0.016
   0.31250000  0.31250000  0.18750000       0.016
   0.43750000  0.31250000  0.18750000       0.016
   0.06250000  0.43750000  0.18750000       0.016
   0.18750000  0.43750000  0.18750000       0.016
   0.31250000  0.43750000  0.18750000       0.016
   0.43750000  0.43750000  0.18750000       0.016
   0.06250000  0.06250000  0.31250000       0.016
   0.18750000  0.06250000  0.31250000       0.016
   0.31250000  0.06250000  0.31250000       0.016
   0.43750000  0.06250000  0.31250000       0.016
   0.06250000  0.18750000  0.31250000       0.016
   0.18750000  0.18750000  0.31250000       0.016
   0.31250000  0.18750000  0.31250000       0.016
   0.43750000  0.18750000  0.31250000       0.016
   0.06250000  0.31250000  0.31250000       0.016
   0.18750000  0.31250000  0.31250000       0.016
   0.31250000  0.31250000  0.31250000       0.016
   0.43750000  0.31250000  0.31250000       0.016
   0.06250000  0.43750000  0.31250000       0.016
   0.18750000  0.43750000  0.31250000       0.016
   0.31250000  0.43750000  0.31250000       0.016
   0.43750000  0.43750000  0.31250000       0.016
   0.06250000  0.06250000  0.43750000       0.016
   0.18750000  0.06250000  0.43750000       0.016
   0.31250000  0.06250000  0.43750000       0.016
   0.43750000  0.06250000  0.43750000       0.016
   0.06250000  0.18750000  0.43750000       0.016
   0.18750000  0.18750000  0.43750000       0.016
   0.31250000  0.18750000  0.43750000       0.016
   0.43750000  0.18750000  0.43750000       0.016
   0.06250000  0.31250000  0.43750000       0.016
   0.18750000  0.31250000  0.43750000       0.016
   0.31250000  0.31250000  0.43750000       0.016
   0.43750000  0.31250000  0.43750000       0.016
   0.06250000  0.43750000  0.43750000       0.016
   0.18750000  0.43750000  0.43750000       0.016
   0.31250000  0.43750000  0.43750000       0.016
   0.43750000  0.43750000  0.43750000       0.016
 
 position of ions in fractional coordinates (direct lattice) 
   0.00000000  0.00000000  0.00000000
   0.00000000  0.50000000  0.25000000
   0.00000000  0.00000000  0.50000000
   0.50000000  0.00000000  0.25000000
   0.00000000  0.50000000  0.75000000
   0.50000000  0.50000000  0.00000000
   0.50000000  0.50000000  0.50000000
   0.50000000  0.00000000  0.75000000
 
 position of ions in cartesian coordinates  (Angst):
   0.00000000  0.00000000  0.00000000
   0.00000000  0.00000000  2.82805900
   0.00000000 -2.82805900  2.82805900
   1.41402950 -1.41402950  1.41402950
   0.00000000 -2.82805900  5.65611800
   1.41402950  1.41402950  1.41402950
   1.41402950 -1.41402950  4.24208850
   1.41402950 -4.24208850  4.24208850
 


--------------------------------------------------------------------------------------------------------


 k-point  1 :   0.0625 0.0625 0.0625  plane waves:    2442
 k-point  2 :   0.1875 0.0625 0.0625  plane waves:    2441
 k-point  3 :   0.3125 0.0625 0.0625  plane waves:    2440
 k-point  4 :   0.4375 0.0625 0.0625  plane waves:    2451
 k-point  5 :   0.0625 0.1875 0.0625  plane waves:    2444
 k-point  6 :   0.1875 0.1875 0.0625  plane waves:    2436
 k-point  7 :   0.3125 0.1875 0.0625  plane waves:    2445
 k-point  8 :   0.4375 0.1875 0.0625  plane waves:    2442
 k-point  9 :   0.0625 0.3125 0.0625  plane waves:    2434
 k-point 10 :   0.1875 0.3125 0.0625  plane waves:    2438
 k-point 11 :   0.3125 0.3125 0.0625  plane waves:    2431
 k-point 12 :   0.4375 0.3125 0.0625  plane waves:    2434
 k-point 13 :   0.0625 0.4375 0.0625  plane waves:    2429
 k-point 14 :   0.1875 0.4375 0.0625  plane waves:    2423
 k-point 15 :   0.3125 0.4375 0.0625  plane waves:    2420
 k-point 16 :   0.4375 0.4375 0.0625  plane waves:    2424
 k-point 17 :   0.0625 0.0625 0.1875  plane waves:    2435
 k-point 18 :   0.1875 0.0625 0.1875  plane waves:    2438
 k-point 19 :   0.3125 0.0625 0.1875  plane waves:    2439
 k-point 20 :   0.4375 0.0625 0.1875  plane waves:    2442
 k-point 21 :   0.0625 0.1875 0.1875  plane waves:    2441
 k-point 22 :   0.1875 0.1875 0.1875  plane waves:    2438
 k-point 23 :   0.3125 0.1875 0.1875  plane waves:    2438
 k-point 24 :   0.4375 0.1875 0.1875  plane waves:    2436
 k-point 25 :   0.0625 0.3125 0.1875  plane waves:    2436
 k-point 26 :   0.1875 0.3125 0.1875  plane waves:    2433
 k-point 27 :   0.3125 0.3125 0.1875  plane waves:    2431
 k-point 28 :   0.4375 0.3125 0.1875  plane waves:    2432
 k-point 29 :   0.0625 0.4375 0.1875  plane waves:    2441
 k-point 30 :   0.1875 0.4375 0.1875  plane waves:    2425
 k-point 31 :   0.3125 0.4375 0.1875  plane waves:    2415
 k-point 32 :   0.4375 0.4375 0.1875  plane waves:    2427
 k-point 33 :   0.0625 0.0625 0.3125  plane waves:    2430
 k-point 34 :   0.1875 0.0625 0.3125  plane waves:    2438
 k-point 35 :   0.3125 0.0625 0.3125  plane waves:    2447
 k-point 36 :   0.4375 0.0625 0.3125  plane waves:    2446
 k-point 37 :   0.0625 0.1875 0.3125  plane waves:    2441
 k-point 38 :   0.1875 0.1875 0.3125  plane waves:    2442
 k-point 39 :   0.3125 0.1875 0.3125  plane waves:    2434
 k-point 40 :   0.4375 0.1875 0.3125  plane waves:    2443
 k-point 41 :   0.0625 0.3125 0.3125  plane waves:    2443
 k-point 42 :   0.1875 0.3125 0.3125  plane waves:    2435
 k-point 43 :   0.3125 0.3125 0.3125  plane waves:    2427
 k-point 44 :   0.4375 0.3125 0.3125  plane waves:    2437
 k-point 45 :   0.0625 0.4375 0.3125  plane waves:    2443
 k-point 46 :   0.1875 0.4375 0.3125  plane waves:    2427
 k-point 47 :   0.3125 0.4375 0.3125  plane waves:    2425
 k-point 48 :   0.4375 0.4375 0.3125  plane waves:    2432
 k-point 49 :   0.0625 0.0625 0.4375  plane waves:    2429
 k-point 50 :   0.1875 0.0625 0.4375  plane waves:    2436
 k-point 51 :   0.3125 0.0625 0.4375  plane waves:    2449
 k-point 52 :   0.4375 0.0625 0.4375  plane waves:    2448
 k-point 53 :   0.0625 0.1875 0.4375  plane waves:    2437
 k-point 54 :   0.1875 0.1875 0.4375  plane waves:    2436
 k-point 55 :   0.3125 0.1875 0.4375  plane waves:    2436
 k-point 56 :   0.4375 0.1875 0.4375  plane waves:    2444
 k-point 57 :   0.0625 0.3125 0.4375  plane waves:    2447
 k-point 58 :   0.1875 0.3125 0.4375  plane waves:    2431
 k-point 59 :   0.3125 0.3125 0.4375  plane waves:    2423
 k-point 60 :   0.4375 0.3125 0.4375  plane waves:    2434
 k-point 61 :   0.0625 0.4375 0.4375  plane waves:    2440
 k-point 62 :   0.1875 0.4375 0.4375  plane waves:    2438
 k-point 63 :   0.3125 0.4375 0.4375  plane waves:    2420
 k-point 64 :   0.4375 0.4375 0.4375  plane waves:    2428

 maximum and minimum number of plane-waves per node :       621      588

 maximum number of plane-waves:      2451
 maximum index in each direction: 
   IXMAX=    5   IYMAX=    7   IZMAX=   14
   IXMIN=   -5   IYMIN=   -7   IZMIN=  -15


 parallel 3D FFT for wavefunctions:
    minimum data exchange during FFTs selected (reduces bandwidth)
 parallel 3D FFT for charge:
    minimum data exchange during FFTs selected (reduces bandwidth)


 total amount of memory used by VASP MPI-rank0    67190. kBytes
=======================================================================

   base      :      30000. kBytes
   nonl-proj :       5793. kBytes
   fftplans  :       1786. kBytes
   grid      :       4023. kBytes
   one-center:         62. kBytes
   wavefun   :      25526. kBytes
 
     INWAV:  cpu time    0.0000: real time    0.0001
 Broyden mixing: mesh for mixing (old mesh)
   NGX = 11   NGY = 15   NGZ = 29
  (NGX  = 48   NGY  = 60   NGZ  =120)
  gives a total of   4785 points

 initial charge density was supplied:
 charge density of overlapping atoms calculated
 number of electron      64.0000000 magnetization       0.0000000
 keeping initial charge density in first step


--------------------------------------------------------------------------------------------------------


 Maximum index for augmentation-charges         2041 (set IRDMAX)


--------------------------------------------------------------------------------------------------------


 First call to EWALD:  gamma=   0.395
 Maximum number of real-space cells 4x 3x 2
 Maximum number of reciprocal cells 2x 3x 5

    FEWALD:  cpu time    0.0016: real time    0.0016


--------------------------------------- Iteration      1(   1)  ---------------------------------------


    POTLOK:  cpu time    0.0594: real time    0.0627
    SETDIJ:  cpu time    0.6523: real time    0.6553
     EDDAV:  cpu time    3.9711: real time    4.0025
 BZINTS: Fermi energy: 21.147929; 64.000000 electrons
         Band energy: 954.362294;  BLOECHL correction: -0.093974
       DOS:  cpu time    0.2000: real time    0.2005
    --------------------------------------------
      LOOP:  cpu time    4.8828: real time    4.9209

 eigenvalue-minimisations  :  9752
 total energy-change (2. order) : 0.5384189E+03  (-0.2740232E+04)
 number of electron      64.0000000 magnetization       0.0000000
 augmentation part       64.0000000 magnetization       0.0000000

 Free energy of the ion-electron system (eV)
  ---------------------------------------------------
  alpha Z        PSCENC =       488.89906520
  Ewald energy   TEWEN  =     -4743.70317337
  -Hartree energ DENC   =      -889.53046104
  -exchange      EXHF   =         0.00000000
  -V(xc)+E(xc)   XCENC  =        35.58870137
  PAW double counting   =      4434.36362270    -4496.06260620
  entropy T*S    EENTRO =         0.00000000
  eigenvalues    EBANDS =       954.36229350
  atomic energy  EATOM  =      4754.50144563
  Solvation  Ediel_sol  =         0.00000000
  ---------------------------------------------------
  free energy    TOTEN  =       538.41888779 eV

  energy without entropy =      538.41888779  energy(sigma->0) =      538.41888779


--------------------------------------------------------------------------------------------------------




--------------------------------------- Iteration      1(   2)  ---------------------------------------


     EDDAV:  cpu time    3.9188: real time    3.9333
 BZINTS: Fermi energy: 10.185090; 64.000000 electrons
         Band energy: 403.273869;  BLOECHL correction: -0.047115
       DOS:  cpu time    0.2011: real time    0.2016
    --------------------------------------------
      LOOP:  cpu time    4.1199: real time    4.1349

 eigenvalue-minimisations  :  9728
 total energy-change (2. order) :-0.5510884E+03  (-0.5383099E+03)
 number of electron      64.0000000 magnetization       0.0000000
 augmentation part       64.0000000 magnetization       0.0000000

 Free energy of the ion-electron system (eV)
  ---------------------------------------------------
  alpha Z        PSCENC =       488.89906520
  Ewald energy   TEWEN  =     -4743.70317337
  -Hartree energ DENC   =      -889.53046104
  -exchange      EXHF   =         0.00000000
  -V(xc)+E(xc)   XCENC  =        35.58870137
  PAW double counting   =      4434.36362270    -4496.06260620
  entropy T*S    EENTRO =         0.00000000
  eigenvalues    EBANDS =       403.27386893
  atomic energy  EATOM  =      4754.50144563
  Solvation  Ediel_sol  =         0.00000000
  ---------------------------------------------------
  free energy    TOTEN  =       -12.66953678 eV

  energy without entropy =      -12.66953678  energy(sigma->0) =      -12.66953678


--------------------------------------------------------------------------------------------------------




--------------------------------------- Iteration      1(   3)  ---------------------------------------


     EDDAV:  cpu time    5.1649: real time    5.1845
 BZINTS: Fermi energy:  8.826197; 64.000000 electrons
         Band energy: 348.669879;  BLOECHL correction: -0.049777
       DOS:  cpu time    0.1934: real time    0.1942
    --------------------------------------------
      LOOP:  cpu time    5.3583: real time    5.3787

 eigenvalue-minimisations  : 13914
 total energy-change (2. order) :-0.5460399E+02  (-0.4968131E+02)
 number of electron      64.0000000 magnetization       0.0000000
 augmentation part       64.0000000 magnetization       0.0000000

 Free energy of the ion-electron system (eV)
  ---------------------------------------------------
  alpha Z        PSCENC =       488.89906520
  Ewald energy   TEWEN  =     -4743.70317337
  -Hartree energ DENC   =      -889.53046104
  -exchange      EXHF   =         0.00000000
  -V(xc)+E(xc)   XCENC  =        35.58870137
  PAW double counting   =      4434.36362270    -4496.06260620
  entropy T*S    EENTRO =         0.00000000
  eigenvalues    EBANDS =       348.66987909
  atomic energy  EATOM  =      4754.50144563
  Solvation  Ediel_sol  =         0.00000000
  ---------------------------------------------------
  free energy    TOTEN  =       -67.27352662 eV

  energy without entropy =      -67.27352662  energy(sigma->0) =      -67.27352662


--------------------------------------------------------------------------------------------------------




--------------------------------------- Iteration      1(   4)  ---------------------------------------


     EDDAV:  cpu time    5.7628: real time    5.7811
 BZINTS: Fermi energy:  8.467753; 64.000000 electrons
         Band energy: 342.199725;  BLOECHL correction: -0.038469
       DOS:  cpu time    0.1933: real time    0.1939
    --------------------------------------------
      LOOP:  cpu time    5.9560: real time    5.9750

 eigenvalue-minimisations  : 16012
 total energy-change (2. order) :-0.6470154E+01  (-0.5882927E+01)
 number of electron      64.0000000 magnetization       0.0000000
 augmentation part       64.0000000 magnetization       0.0000000

 Free energy of the ion-electron system (eV)
  ---------------------------------------------------
  alpha Z        PSCENC =       488.89906520
  Ewald energy   TEWEN  =     -4743.70317337
  -Hartree energ DENC   =      -889.53046104
  -exchange      EXHF   =         0.00000000
  -V(xc)+E(xc)   XCENC  =        35.58870137
  PAW double counting   =      4434.36362270    -4496.06260620
  entropy T*S    EENTRO =         0.00000000
  eigenvalues    EBANDS =       342.19972478
  atomic energy  EATOM  =      4754.50144563
  Solvation  Ediel_sol  =         0.00000000
  ---------------------------------------------------
  free energy    TOTEN  =       -73.74368093 eV

  energy without entropy =      -73.74368093  energy(sigma->0) =      -73.74368093


--------------------------------------------------------------------------------------------------------




--------------------------------------- Iteration      1(   5)  ---------------------------------------


     EDDAV:  cpu time    5.4742: real time    5.4946
 BZINTS: Fermi energy:  8.423520; 64.000000 electrons
         Band energy: 341.768198;  BLOECHL correction: -0.039763
       DOS:  cpu time    0.1874: real time    0.1879
    CHARGE:  cpu time    0.3408: real time    0.3417
    MIXING:  cpu time    0.0011: real time    0.0012
    --------------------------------------------
      LOOP:  cpu time    6.0035: real time    6.0254

 eigenvalue-minimisations  : 15196
 total energy-change (2. order) :-0.4315266E+00  (-0.4025561E+00)
 number of electron      64.0000056 magnetization       0.0000000
 augmentation part       28.7624381 magnetization       0.0000000

 Broyden mixing:
  rms(total) = 0.31830E+01    rms(broyden)= 0.31829E+01
  rms(prec ) = 0.39614E+01
  weight for this iteration     100.00

 Free energy of the ion-electron system (eV)
  ---------------------------------------------------
  alpha Z        PSCENC =       488.89906520
  Ewald energy   TEWEN  =     -4743.70317337
  -Hartree energ DENC   =      -889.53046104
  -exchange      EXHF   =         0.00000000
  -V(xc)+E(xc)   XCENC  =        35.58870137
  PAW double counting   =      4434.36362270    -4496.06260620
  entropy T*S    EENTRO =         0.00000000
  eigenvalues    EBANDS =       341.76819815
  atomic energy  EATOM  =      4754.50144563
  Solvation  Ediel_sol  =         0.00000000
  ---------------------------------------------------
  free energy    TOTEN  =       -74.17520756 eV

  energy without entropy =      -74.17520756  energy(sigma->0) =      -74.17520756


--------------------------------------------------------------------------------------------------------




--------------------------------------- Iteration      1(   6)  ---------------------------------------


    POTLOK:  cpu time    0.0554: real time    0.0556
    SETDIJ:  cpu time    0.6159: real time    0.6192
    EDDIAG:  cpu time    0.8938: real time    0.8961
  RMM-DIIS:  cpu time    2.9488: real time    2.9582
    ORTHCH:  cpu time    0.0882: real time    0.0884
 BZINTS: Fermi energy:  5.426785; 64.000000 electrons
         Band energy: 203.398706;  BLOECHL correction: -0.054978
       DOS:  cpu time    0.1876: real time    0.1881
    CHARGE:  cpu time    0.3422: real time    0.3432
    MIXING:  cpu time    0.0013: real time    0.0013
    --------------------------------------------
      LOOP:  cpu time    5.1333: real time    5.1501

 eigenvalue-minimisations  :  9728
 total energy-change (2. order) : 0.9778246E+01  (-0.9768834E+01)
 number of electron      64.0000066 magnetization       0.0000000
 augmentation part       33.5623780 magnetization       0.0000000

 Broyden mixing:
  rms(total) = 0.15811E+01    rms(broyden)= 0.15810E+01
  rms(prec ) = 0.18134E+01
  weight for this iteration     100.00

 eigenvalues of (default mixing * dielectric matrix)
  average eigenvalue GAMMA=   0.6368
  0.6368

 Free energy of the ion-electron system (eV)
  ---------------------------------------------------
  alpha Z        PSCENC =       488.89906520
  Ewald energy   TEWEN  =     -4743.70317337
  -Hartree energ DENC   =      -752.95564710
  -exchange      EXHF   =         0.00000000
  -V(xc)+E(xc)   XCENC  =        29.35709517
  PAW double counting   =      4858.09432157    -4901.98877487
  entropy T*S    EENTRO =         0.00000000
  eigenvalues    EBANDS =       203.39870576
  atomic energy  EATOM  =      4754.50144563
  Solvation  Ediel_sol  =         0.00000000
  ---------------------------------------------------
  free energy    TOTEN  =       -64.39696201 eV

  energy without entropy =      -64.39696201  energy(sigma->0) =      -64.39696201


--------------------------------------------------------------------------------------------------------




--------------------------------------- Iteration      1(   7)  ---------------------------------------


    POTLOK:  cpu time    0.0549: real time    0.0551
    SETDIJ:  cpu time    0.6542: real time    0.6567
    EDDIAG:  cpu time    0.9008: real time    0.9031
  RMM-DIIS:  cpu time    3.0552: real time    3.0656
    ORTHCH:  cpu time    0.0903: real time    0.0905
 BZINTS: Fermi energy:  6.246596; 64.000000 electrons
         Band energy: 216.266755;  BLOECHL correction: -0.028859
       DOS:  cpu time    0.1951: real time    0.1957
    CHARGE:  cpu time    0.3180: real time    0.3189
    MIXING:  cpu time    0.0012: real time    0.0012
    --------------------------------------------
      LOOP:  cpu time    5.2697: real time    5.2869

 eigenvalue-minimisations  : 10037
 total energy-change (2. order) :-0.5692231E+01  (-0.3201580E+01)
 number of electron      64.0000062 magnetization      -0.0000000
 augmentation part       33.3907316 magnetization      -0.0000000

 Broyden mixing:
  rms(total) = 0.30132E+01    rms(broyden)= 0.30131E+01
  rms(prec ) = 0.45081E+01
  weight for this iteration     100.00

 eigenvalues of (default mixing * dielectric matrix)
  average eigenvalue GAMMA=   0.5788
  0.8179  0.3396

 Free energy of the ion-electron system (eV)
  ---------------------------------------------------
  alpha Z        PSCENC =       488.89906520
  Ewald energy   TEWEN  =     -4743.70317337
  -Hartree energ DENC   =      -759.82373986
  -exchange      EXHF   =         0.00000000
  -V(xc)+E(xc)   XCENC  =        30.98946682
  PAW double counting   =      5136.12230378    -5193.34131618
  entropy T*S    EENTRO =         0.00000000
  eigenvalues    EBANDS =       216.26675478
  atomic energy  EATOM  =      4754.50144563
  Solvation  Ediel_sol  =         0.00000000
  ---------------------------------------------------
  free energy    TOTEN  =       -70.08919321 eV

  energy without entropy =      -70.08919321  energy(sigma->0) =      -70.08919321


--------------------------------------------------------------------------------------------------------




--------------------------------------- Iteration      1(   8)  ---------------------------------------


    POTLOK:  cpu time    0.0531: real time    0.0536
    SETDIJ:  cpu time    0.6552: real time    0.6570
    EDDIAG:  cpu time    0.8913: real time    0.8936
  RMM-DIIS:  cpu time    2.9366: real time    2.9462
    ORTHCH:  cpu time    0.0893: real time    0.0895
 BZINTS: Fermi energy:  5.983435; 64.000000 electrons
         Band energy: 226.505194;  BLOECHL correction: -0.034877
       DOS:  cpu time    0.1759: real time    0.1763
    CHARGE:  cpu time    0.3372: real time    0.3382
    MIXING:  cpu time    0.0013: real time    0.0013
    --------------------------------------------
      LOOP:  cpu time    5.1400: real time    5.1558

 eigenvalue-minimisations  :  9729
 total energy-change (2. order) : 0.5644933E+01  (-0.1398170E+01)
 number of electron      64.0000065 magnetization      -0.0000000
 augmentation part       33.1952604 magnetization      -0.0000000

 Broyden mixing:
  rms(total) = 0.10036E+01    rms(broyden)= 0.10034E+01
  rms(prec ) = 0.13914E+01
  weight for this iteration     100.00

 eigenvalues of (default mixing * dielectric matrix)
  average eigenvalue GAMMA=   0.6019
  1.0834  0.5427  0.1796

 Free energy of the ion-electron system (eV)
  ---------------------------------------------------
  alpha Z        PSCENC =       488.89906520
  Ewald energy   TEWEN  =     -4743.70317337
  -Hartree energ DENC   =      -760.97246881
  -exchange      EXHF   =         0.00000000
  -V(xc)+E(xc)   XCENC  =        31.09398409
  PAW double counting   =      5221.04487323    -5281.81318055
  entropy T*S    EENTRO =         0.00000000
  eigenvalues    EBANDS =       226.50519408
  atomic energy  EATOM  =      4754.50144563
  Solvation  Ediel_sol  =         0.00000000
  ---------------------------------------------------
  free energy    TOTEN  =       -64.44426051 eV

  energy without entropy =      -64.44426051  energy(sigma->0) =      -64.44426051


--------------------------------------------------------------------------------------------------------




--------------------------------------- Iteration      1(   9)  ---------------------------------------


    POTLOK:  cpu time    0.0540: real time    0.0542
    SETDIJ:  cpu time    0.6514: real time    0.6535
    EDDIAG:  cpu time    0.9073: real time    0.9101
  RMM-DIIS:  cpu time    3.1549: real time    3.1705
    ORTHCH:  cpu time    0.0892: real time    0.0894
 BZINTS: Fermi energy:  6.003170; 64.000000 electrons
         Band energy: 228.901422;  BLOECHL correction: -0.046147
       DOS:  cpu time    0.1907: real time    0.1912
    CHARGE:  cpu time    0.3379: real time    0.3391
    MIXING:  cpu time    0.0013: real time    0.0013
    --------------------------------------------
      LOOP:  cpu time    5.3868: real time    5.4094

 eigenvalue-minimisations  : 10485
 total energy-change (2. order) :-0.8138376E+00  (-0.7641923E+00)
 number of electron      64.0000065 magnetization       0.0000000
 augmentation part       33.1894046 magnetization       0.0000000

 Broyden mixing:
  rms(total) = 0.12427E+01    rms(broyden)= 0.12427E+01
  rms(prec ) = 0.18376E+01
  weight for this iteration     100.00

 eigenvalues of (default mixing * dielectric matrix)
  average eigenvalue GAMMA=   0.5110
  1.1394  0.5187  0.2265  0.1595

 Free energy of the ion-electron system (eV)
  ---------------------------------------------------
  alpha Z        PSCENC =       488.89906520
  Ewald energy   TEWEN  =     -4743.70317337
  -Hartree energ DENC   =      -760.95268487
  -exchange      EXHF   =         0.00000000
  -V(xc)+E(xc)   XCENC  =        31.21999332
  PAW double counting   =      5330.46189656    -5394.58606277
  entropy T*S    EENTRO =         0.00000000
  eigenvalues    EBANDS =       228.90142222
  atomic energy  EATOM  =      4754.50144563
  Solvation  Ediel_sol  =         0.00000000
  ---------------------------------------------------
  free energy    TOTEN  =       -65.25809808 eV

  energy without entropy =      -65.25809808  energy(sigma->0) =      -65.25809808


--------------------------------------------------------------------------------------------------------




--------------------------------------- Iteration      1(  10)  ---------------------------------------


    POTLOK:  cpu time    0.0534: real time    0.0538
    SETDIJ:  cpu time    0.6527: real time    0.6547
    EDDIAG:  cpu time    0.8937: real time    0.8966
  RMM-DIIS:  cpu time    2.9654: real time    2.9756
    ORTHCH:  cpu time    0.0889: real time    0.0893
 BZINTS: Fermi energy:  6.105631; 64.000000 electrons
         Band energy: 231.612398;  BLOECHL correction: -0.043126
       DOS:  cpu time    0.1775: real time    0.1780
    CHARGE:  cpu time    0.3451: real time    0.3465
    MIXING:  cpu time    0.0014: real time    0.0014
    --------------------------------------------
      LOOP:  cpu time    5.1781: real time    5.1958

 eigenvalue-minimisations  :  9778
 total energy-change (2. order) : 0.1026117E+01  (-0.1964983E+00)
 number of electron      64.0000065 magnetization       0.0000000
 augmentation part       33.0842765 magnetization       0.0000000

 Broyden mixing:
  rms(total) = 0.28412E+00    rms(broyden)= 0.28407E+00
  rms(prec ) = 0.34508E+00
  weight for this iteration     100.00

 eigenvalues of (default mixing * dielectric matrix)
  average eigenvalue GAMMA=   0.6479
  1.5305  0.6724  0.6724  0.1996  0.1647

 Free energy of the ion-electron system (eV)
  ---------------------------------------------------
  alpha Z        PSCENC =       488.89906520
  Ewald energy   TEWEN  =     -4743.70317337
  -Hartree energ DENC   =      -760.68243523
  -exchange      EXHF   =         0.00000000
  -V(xc)+E(xc)   XCENC  =        31.32038834
  PAW double counting   =      5403.22493470    -5469.40460414
  entropy T*S    EENTRO =         0.00000000
  eigenvalues    EBANDS =       231.61239818
  atomic energy  EATOM  =      4754.50144563
  Solvation  Ediel_sol  =         0.00000000
  ---------------------------------------------------
  free energy    TOTEN  =       -64.23198070 eV

  energy without entropy =      -64.23198070  energy(sigma->0) =      -64.23198070


--------------------------------------------------------------------------------------------------------




--------------------------------------- Iteration      1(  11)  ---------------------------------------


    POTLOK:  cpu time    0.0578: real time    0.0580
    SETDIJ:  cpu time    0.6819: real time    0.6837
    EDDIAG:  cpu time    0.8923: real time    0.8975
  RMM-DIIS:  cpu time    4.2723: real time    4.2881
    ORTHCH:  cpu time    0.0903: real time    0.0907
 BZINTS: Fermi energy:  6.127313; 64.000000 electrons
         Band energy: 231.658084;  BLOECHL correction: -0.042294
       DOS:  cpu time    0.1869: real time    0.1876
    CHARGE:  cpu time    0.3416: real time    0.3428
    MIXING:  cpu time    0.0015: real time    0.0015
    --------------------------------------------
      LOOP:  cpu time    6.5246: real time    6.5499

 eigenvalue-minimisations  : 14623
 total energy-change (2. order) :-0.6916951E-01  (-0.9522834E-01)
 number of electron      64.0000065 magnetization       0.0000000
 augmentation part       33.0831579 magnetization       0.0000000

 Broyden mixing:
  rms(total) = 0.20537E+00    rms(broyden)= 0.20534E+00
  rms(prec ) = 0.28220E+00
  weight for this iteration     100.00

 eigenvalues of (default mixing * dielectric matrix)
  average eigenvalue GAMMA=   0.7332
  1.9855  0.7405  0.7405  0.5586  0.1671  0.2071

 Free energy of the ion-electron system (eV)
  ---------------------------------------------------
  alpha Z        PSCENC =       488.89906520
  Ewald energy   TEWEN  =     -4743.70317337
  -Hartree energ DENC   =      -757.94163621
  -exchange      EXHF   =         0.00000000
  -V(xc)+E(xc)   XCENC  =        31.88486596
  PAW double counting   =      5551.36795278    -5620.96775419
  entropy T*S    EENTRO =         0.00000000
  eigenvalues    EBANDS =       231.65808399
  atomic energy  EATOM  =      4754.50144563
  Solvation  Ediel_sol  =         0.00000000
  ---------------------------------------------------
  free energy    TOTEN  =       -64.30115021 eV

  energy without entropy =      -64.30115021  energy(sigma->0) =      -64.30115021


--------------------------------------------------------------------------------------------------------




--------------------------------------- Iteration      1(  12)  ---------------------------------------


    POTLOK:  cpu time    0.0547: real time    0.0553
    SETDIJ:  cpu time    0.6508: real time    0.6528
    EDDIAG:  cpu time    0.8901: real time    0.8927
  RMM-DIIS:  cpu time    3.6601: real time    3.6755
    ORTHCH:  cpu time    0.0910: real time    0.0914
 BZINTS: Fermi energy:  6.126421; 64.000000 electrons
         Band energy: 231.555786;  BLOECHL correction: -0.043801
       DOS:  cpu time    0.1857: real time    0.1864
    CHARGE:  cpu time    0.3411: real time    0.3419
    MIXING:  cpu time    0.0016: real time    0.0016
    --------------------------------------------
      LOOP:  cpu time    5.8751: real time    5.8977

 eigenvalue-minimisations  : 12290
 total energy-change (2. order) : 0.6746340E-02  (-0.1055567E-01)
 number of electron      64.0000065 magnetization      -0.0000000
 augmentation part       33.1029291 magnetization      -0.0000000

 Broyden mixing:
  rms(total) = 0.75019E-01    rms(broyden)= 0.75010E-01
  rms(prec ) = 0.84276E-01
  weight for this iteration     100.00

 eigenvalues of (default mixing * dielectric matrix)
  average eigenvalue GAMMA=   0.8436
  2.4590  0.8890  0.8890  0.7309  0.5632  0.1673  0.2069

 Free energy of the ion-electron system (eV)
  ---------------------------------------------------
  alpha Z        PSCENC =       488.89906520
  Ewald energy   TEWEN  =     -4743.70317337
  -Hartree energ DENC   =      -756.35926510
  -exchange      EXHF   =         0.00000000
  -V(xc)+E(xc)   XCENC  =        31.93236755
  PAW double counting   =      5632.67625394    -5703.79688410
  entropy T*S    EENTRO =         0.00000000
  eigenvalues    EBANDS =       231.55578639
  atomic energy  EATOM  =      4754.50144563
  Solvation  Ediel_sol  =         0.00000000
  ---------------------------------------------------
  free energy    TOTEN  =       -64.29440387 eV

  energy without entropy =      -64.29440387  energy(sigma->0) =      -64.29440387


--------------------------------------------------------------------------------------------------------




--------------------------------------- Iteration      1(  13)  ---------------------------------------


    POTLOK:  cpu time    0.0540: real time    0.0542
    SETDIJ:  cpu time    0.6179: real time    0.6195
    EDDIAG:  cpu time    0.8712: real time    0.8735
  RMM-DIIS:  cpu time    4.3880: real time    4.4038
    ORTHCH:  cpu time    0.0898: real time    0.0900
 BZINTS: Fermi energy:  6.117967; 64.000000 electrons
         Band energy: 230.990391;  BLOECHL correction: -0.043792
       DOS:  cpu time    0.1872: real time    0.1877
    CHARGE:  cpu time    0.3426: real time    0.3437
    MIXING:  cpu time    0.0016: real time    0.0016
    --------------------------------------------
      LOOP:  cpu time    6.5523: real time    6.5740

 eigenvalue-minimisations  : 15080
 total energy-change (2. order) :-0.7327326E-02  (-0.7295229E-02)
 number of electron      64.0000065 magnetization      -0.0000000
 augmentation part       33.1318939 magnetization      -0.0000000

 Broyden mixing:
  rms(total) = 0.35617E-01    rms(broyden)= 0.35607E-01
  rms(prec ) = 0.50752E-01
  weight for this iteration     100.00

 eigenvalues of (default mixing * dielectric matrix)
  average eigenvalue GAMMA=   0.9036
  2.7652  1.2876  0.8024  0.8024  0.5986  0.5986  0.2069  0.1674

 Free energy of the ion-electron system (eV)
  ---------------------------------------------------
  alpha Z        PSCENC =       488.89906520
  Ewald energy   TEWEN  =     -4743.70317337
  -Hartree energ DENC   =      -754.90672033
  -exchange      EXHF   =         0.00000000
  -V(xc)+E(xc)   XCENC  =        32.07964601
  PAW double counting   =      5705.44763807    -5777.61002309
  entropy T*S    EENTRO =         0.00000000
  eigenvalues    EBANDS =       230.99039068
  atomic energy  EATOM  =      4754.50144563
  Solvation  Ediel_sol  =         0.00000000
  ---------------------------------------------------
  free energy    TOTEN  =       -64.30173120 eV

  energy without entropy =      -64.30173120  energy(sigma->0) =      -64.30173120


--------------------------------------------------------------------------------------------------------




--------------------------------------- Iteration      1(  14)  ---------------------------------------


    POTLOK:  cpu time    0.0490: real time    0.0493
    SETDIJ:  cpu time    0.6510: real time    0.6526
    EDDIAG:  cpu time    0.8949: real time    0.8978
  RMM-DIIS:  cpu time    3.9905: real time    4.0062
    ORTHCH:  cpu time    0.0880: real time    0.0882
 BZINTS: Fermi energy:  6.122681; 64.000000 electrons
         Band energy: 231.002105;  BLOECHL correction: -0.043394
       DOS:  cpu time    0.1865: real time    0.1871
    CHARGE:  cpu time    0.3396: real time    0.3404
    MIXING:  cpu time    0.0017: real time    0.0017
    --------------------------------------------
      LOOP:  cpu time    6.2013: real time    6.2234

 eigenvalue-minimisations  : 13601
 total energy-change (2. order) :-0.4139908E-03  (-0.8837856E-03)
 number of electron      64.0000065 magnetization       0.0000000
 augmentation part       33.1328598 magnetization       0.0000000

 Broyden mixing:
  rms(total) = 0.14842E-01    rms(broyden)= 0.14838E-01
  rms(prec ) = 0.18359E-01
  weight for this iteration     100.00

 eigenvalues of (default mixing * dielectric matrix)
  average eigenvalue GAMMA=   0.9509
  3.0714  1.5557  0.1674  0.2069  0.8527  0.8527  0.6521  0.6521  0.5471

 Free energy of the ion-electron system (eV)
  ---------------------------------------------------
  alpha Z        PSCENC =       488.89906520
  Ewald energy   TEWEN  =     -4743.70317337
  -Hartree energ DENC   =      -754.94294626
  -exchange      EXHF   =         0.00000000
  -V(xc)+E(xc)   XCENC  =        32.10933899
  PAW double counting   =      5716.62262527    -5788.79060571
  entropy T*S    EENTRO =         0.00000000
  eigenvalues    EBANDS =       231.00210507
  atomic energy  EATOM  =      4754.50144563
  Solvation  Ediel_sol  =         0.00000000
  ---------------------------------------------------
  free energy    TOTEN  =       -64.30214519 eV

  energy without entropy =      -64.30214519  energy(sigma->0) =      -64.30214519


--------------------------------------------------------------------------------------------------------




--------------------------------------- Iteration      1(  15)  ---------------------------------------


    POTLOK:  cpu time    0.0539: real time    0.0542
    SETDIJ:  cpu time    0.6466: real time    0.6488
    EDDIAG:  cpu time    0.8974: real time    0.8998
  RMM-DIIS:  cpu time    4.3525: real time    4.3777
    ORTHCH:  cpu time    0.0883: real time    0.0885
 BZINTS: Fermi energy:  6.125246; 64.000000 electrons
         Band energy: 231.069579;  BLOECHL correction: -0.043191
       DOS:  cpu time    0.1808: real time    0.1838
    CHARGE:  cpu time    0.3364: real time    0.3374
    MIXING:  cpu time    0.0018: real time    0.0018
    --------------------------------------------
      LOOP:  cpu time    6.5576: real time    6.5919

 eigenvalue-minimisations  : 14923
 total energy-change (2. order) :-0.8292952E-04  (-0.3039333E-03)
 number of electron      64.0000065 magnetization       0.0000000
 augmentation part       33.1296197 magnetization       0.0000000

 Broyden mixing:
  rms(total) = 0.75761E-02    rms(broyden)= 0.75731E-02
  rms(prec ) = 0.89729E-02
  weight for this iteration     100.00

 eigenvalues of (default mixing * dielectric matrix)
  average eigenvalue GAMMA=   1.0004
  3.1579  1.7781  0.9909  0.9909  0.1674  0.2069  0.7612  0.7612  0.5946  0.5946

 Free energy of the ion-electron system (eV)
  ---------------------------------------------------
  alpha Z        PSCENC =       488.89906520
  Ewald energy   TEWEN  =     -4743.70317337
  -Hartree energ DENC   =      -755.19919183
  -exchange      EXHF   =         0.00000000
  -V(xc)+E(xc)   XCENC  =        32.15248515
  PAW double counting   =      5716.13921630    -5788.16165432
  entropy T*S    EENTRO =         0.00000000
  eigenvalues    EBANDS =       231.06957912
  atomic energy  EATOM  =      4754.50144563
  Solvation  Ediel_sol  =         0.00000000
  ---------------------------------------------------
  free energy    TOTEN  =       -64.30222812 eV

  energy without entropy =      -64.30222812  energy(sigma->0) =      -64.30222812


--------------------------------------------------------------------------------------------------------




--------------------------------------- Iteration      1(  16)  ---------------------------------------


    POTLOK:  cpu time    0.0544: real time    0.0547
    SETDIJ:  cpu time    0.6494: real time    0.6510
    EDDIAG:  cpu time    0.8926: real time    0.8959
  RMM-DIIS:  cpu time    4.2384: real time    4.2528
    ORTHCH:  cpu time    0.0888: real time    0.0892
 BZINTS: Fermi energy:  6.126691; 64.000000 electrons
         Band energy: 231.102871;  BLOECHL correction: -0.043116
       DOS:  cpu time    0.1766: real time    0.1770
    CHARGE:  cpu time    0.3351: real time    0.3359
    MIXING:  cpu time    0.0020: real time    0.0020
    --------------------------------------------
      LOOP:  cpu time    6.4373: real time    6.4584

 eigenvalue-minimisations  : 14671
 total energy-change (2. order) : 0.5545713E-04  (-0.4540729E-04)
 number of electron      64.0000065 magnetization       0.0000000
 augmentation part       33.1285832 magnetization       0.0000000

 Broyden mixing:
  rms(total) = 0.53185E-02    rms(broyden)= 0.53176E-02
  rms(prec ) = 0.56524E-02
  weight for this iteration     100.00

 eigenvalues of (default mixing * dielectric matrix)
  average eigenvalue GAMMA=   1.0454
  3.3424  1.9803  1.1580  1.1580  0.1674  0.2069  0.8437  0.8437  0.6258  0.6258
  0.5473

 Free energy of the ion-electron system (eV)
  ---------------------------------------------------
  alpha Z        PSCENC =       488.89906520
  Ewald energy   TEWEN  =     -4743.70317337
  -Hartree energ DENC   =      -755.38700297
  -exchange      EXHF   =         0.00000000
  -V(xc)+E(xc)   XCENC  =        32.17287013
  PAW double counting   =      5712.04720362    -5783.93545226
  entropy T*S    EENTRO =         0.00000000
  eigenvalues    EBANDS =       231.10287136
  atomic energy  EATOM  =      4754.50144563
  Solvation  Ediel_sol  =         0.00000000
  ---------------------------------------------------
  free energy    TOTEN  =       -64.30217266 eV

  energy without entropy =      -64.30217266  energy(sigma->0) =      -64.30217266


--------------------------------------------------------------------------------------------------------




--------------------------------------- Iteration      1(  17)  ---------------------------------------


    POTLOK:  cpu time    0.0550: real time    0.0552
    SETDIJ:  cpu time    0.6496: real time    0.6513
    EDDIAG:  cpu time    0.8930: real time    0.8960
  RMM-DIIS:  cpu time    4.0425: real time    4.0556
    ORTHCH:  cpu time    0.0817: real time    0.0819
 BZINTS: Fermi energy:  6.127544; 64.000000 electrons
         Band energy: 231.123830;  BLOECHL correction: -0.043062
       DOS:  cpu time    0.1599: real time    0.1603
    CHARGE:  cpu time    0.2992: real time    0.2999
    MIXING:  cpu time    0.0017: real time    0.0017
    --------------------------------------------
      LOOP:  cpu time    6.1825: real time    6.2018

 eigenvalue-minimisations  : 14159
 total energy-change (2. order) : 0.3584564E-04  (-0.1875577E-04)
 number of electron      64.0000065 magnetization       0.0000000
 augmentation part       33.1277099 magnetization       0.0000000

 Broyden mixing:
  rms(total) = 0.23118E-02    rms(broyden)= 0.23109E-02
  rms(prec ) = 0.26762E-02
  weight for this iteration     100.00

 eigenvalues of (default mixing * dielectric matrix)
  average eigenvalue GAMMA=   1.1040
  3.3855  2.4779  1.5959  1.0011  1.0011  0.1674  0.2069  0.7948  0.7948  0.6341
  0.6341  0.5547

 Free energy of the ion-electron system (eV)
  ---------------------------------------------------
  alpha Z        PSCENC =       488.89906520
  Ewald energy   TEWEN  =     -4743.70317337
  -Hartree energ DENC   =      -755.47547023
  -exchange      EXHF   =         0.00000000
  -V(xc)+E(xc)   XCENC  =        32.19739700
  PAW double counting   =      5710.54721848    -5782.39244988
  entropy T*S    EENTRO =         0.00000000
  eigenvalues    EBANDS =       231.12383035
  atomic energy  EATOM  =      4754.50144563
  Solvation  Ediel_sol  =         0.00000000
  ---------------------------------------------------
  free energy    TOTEN  =       -64.30213682 eV

  energy without entropy =      -64.30213682  energy(sigma->0) =      -64.30213682


--------------------------------------------------------------------------------------------------------




--------------------------------------- Iteration      1(  18)  ---------------------------------------


    POTLOK:  cpu time    0.0475: real time    0.0477
    SETDIJ:  cpu time    0.5553: real time    0.5568
    EDDIAG:  cpu time    0.8073: real time    0.8094
  RMM-DIIS:  cpu time    3.6441: real time    3.6534
    ORTHCH:  cpu time    0.0816: real time    0.0818
 BZINTS: Fermi energy:  6.128104; 64.000000 electrons
         Band energy: 231.135600;  BLOECHL correction: -0.043017
       DOS:  cpu time    0.1632: real time    0.1637
    CHARGE:  cpu time    0.3042: real time    0.3050
    MIXING:  cpu time    0.0018: real time    0.0018
    --------------------------------------------
      LOOP:  cpu time    5.6050: real time    5.6195

 eigenvalue-minimisations  : 13540
 total energy-change (2. order) : 0.1071732E-04  (-0.9003796E-05)
 number of electron      64.0000065 magnetization       0.0000000
 augmentation part       33.1270185 magnetization       0.0000000

 Broyden mixing:
  rms(total) = 0.27773E-02    rms(broyden)= 0.27770E-02
  rms(prec ) = 0.41425E-02
  weight for this iteration     100.00

 eigenvalues of (default mixing * dielectric matrix)
  average eigenvalue GAMMA=   1.1312
  3.3778  2.9605  1.8124  1.0663  1.0663  0.1674  0.2069  0.8202  0.8202  0.6455
  0.6455  0.5583  0.5583

 Free energy of the ion-electron system (eV)
  ---------------------------------------------------
  alpha Z        PSCENC =       488.89906520
  Ewald energy   TEWEN  =     -4743.70317337
  -Hartree energ DENC   =      -755.52809169
  -exchange      EXHF   =         0.00000000
  -V(xc)+E(xc)   XCENC  =        32.20358251
  PAW double counting   =      5708.63519824    -5780.44575244
  entropy T*S    EENTRO =         0.00000000
  eigenvalues    EBANDS =       231.13559982
  atomic energy  EATOM  =      4754.50144563
  Solvation  Ediel_sol  =         0.00000000
  ---------------------------------------------------
  free energy    TOTEN  =       -64.30212610 eV

  energy without entropy =      -64.30212610  energy(sigma->0) =      -64.30212610


--------------------------------------------------------------------------------------------------------




--------------------------------------- Iteration      1(  19)  ---------------------------------------


    POTLOK:  cpu time    0.0477: real time    0.0479
    SETDIJ:  cpu time    0.5589: real time    0.5602
    EDDIAG:  cpu time    0.9020: real time    0.9070
  RMM-DIIS:  cpu time    3.4420: real time    3.5406
    ORTHCH:  cpu time    0.0896: real time    0.0898
 BZINTS: Fermi energy:  6.128055; 64.000000 electrons
         Band energy: 231.129428;  BLOECHL correction: -0.043015
       DOS:  cpu time    0.1781: real time    0.1785
    CHARGE:  cpu time    0.3406: real time    0.3416
    MIXING:  cpu time    0.0020: real time    0.0020
    --------------------------------------------
      LOOP:  cpu time    5.5609: real time    5.6676

 eigenvalue-minimisations  : 11636
 total energy-change (2. order) : 0.4692095E-05  (-0.2052739E-05)
 number of electron      64.0000065 magnetization      -0.0000000
 augmentation part       33.1273499 magnetization      -0.0000000

 Broyden mixing:
  rms(total) = 0.13370E-02    rms(broyden)= 0.13369E-02
  rms(prec ) = 0.18867E-02
  weight for this iteration     100.00

 eigenvalues of (default mixing * dielectric matrix)
  average eigenvalue GAMMA=   1.2150
  4.2181  3.1080  2.0672  0.1674  0.2069  1.0927  1.0927  0.8999  0.8999  0.7571
  0.6959  0.5609  0.6219  0.6219

 Free energy of the ion-electron system (eV)
  ---------------------------------------------------
  alpha Z        PSCENC =       488.89906520
  Ewald energy   TEWEN  =     -4743.70317337
  -Hartree energ DENC   =      -755.52290418
  -exchange      EXHF   =         0.00000000
  -V(xc)+E(xc)   XCENC  =        32.20481795
  PAW double counting   =      5708.15036954    -5779.96116990
  entropy T*S    EENTRO =         0.00000000
  eigenvalues    EBANDS =       231.12942773
  atomic energy  EATOM  =      4754.50144563
  Solvation  Ediel_sol  =         0.00000000
  ---------------------------------------------------
  free energy    TOTEN  =       -64.30212141 eV

  energy without entropy =      -64.30212141  energy(sigma->0) =      -64.30212141


--------------------------------------------------------------------------------------------------------




--------------------------------------- Iteration      1(  20)  ---------------------------------------


    POTLOK:  cpu time    0.0533: real time    0.0536
    SETDIJ:  cpu time    0.6574: real time    0.6590
    EDDIAG:  cpu time    0.9008: real time    0.9034
  RMM-DIIS:  cpu time    3.3309: real time    3.3397
    ORTHCH:  cpu time    0.0817: real time    0.0819
 BZINTS: Fermi energy:  6.127977; 64.000000 electrons
         Band energy: 231.125479;  BLOECHL correction: -0.043004
       DOS:  cpu time    0.1689: real time    0.1693
    CHARGE:  cpu time    0.3440: real time    0.3448
    MIXING:  cpu time    0.0022: real time    0.0022
    --------------------------------------------
      LOOP:  cpu time    5.5393: real time    5.5540

 eigenvalue-minimisations  : 11465
 total energy-change (2. order) : 0.7180447E-05  (-0.1586649E-05)
 number of electron      64.0000065 magnetization       0.0000000
 augmentation part       33.1275952 magnetization       0.0000000

 Broyden mixing:
  rms(total) = 0.47872E-03    rms(broyden)= 0.47836E-03
  rms(prec ) = 0.56410E-03
  weight for this iteration     100.00

 eigenvalues of (default mixing * dielectric matrix)
  average eigenvalue GAMMA=   1.2129
  4.3064  3.1006  2.1911  1.2918  0.1674  0.2069  0.9453  0.9453  0.9698  0.8344
  0.8344  0.6329  0.6329  0.5675  0.5675

 Free energy of the ion-electron system (eV)
  ---------------------------------------------------
  alpha Z        PSCENC =       488.89906520
  Ewald energy   TEWEN  =     -4743.70317337
  -Hartree energ DENC   =      -755.51395630
  -exchange      EXHF   =         0.00000000
  -V(xc)+E(xc)   XCENC  =        32.20749233
  PAW double counting   =      5708.24539259    -5780.06385913
  entropy T*S    EENTRO =         0.00000000
  eigenvalues    EBANDS =       231.12547883
  atomic energy  EATOM  =      4754.50144563
  Solvation  Ediel_sol  =         0.00000000
  ---------------------------------------------------
  free energy    TOTEN  =       -64.30211423 eV

  energy without entropy =      -64.30211423  energy(sigma->0) =      -64.30211423


--------------------------------------------------------------------------------------------------------




--------------------------------------- Iteration      1(  21)  ---------------------------------------


    POTLOK:  cpu time    0.0544: real time    0.0571
    SETDIJ:  cpu time    0.6449: real time    0.6466
    EDDIAG:  cpu time    0.8911: real time    0.8940
  RMM-DIIS:  cpu time    2.1943: real time    2.2032
    ORTHCH:  cpu time    0.0905: real time    0.0907
 BZINTS: Fermi energy:  6.127971; 64.000000 electrons
         Band energy: 231.124587;  BLOECHL correction: -0.043000
       DOS:  cpu time    0.1849: real time    0.1855
    --------------------------------------------
      LOOP:  cpu time    4.0601: real time    4.0771

 eigenvalue-minimisations  :  6915
 total energy-change (2. order) : 0.6480150E-08  (-0.2240968E-06)
 number of electron      64.0000065 magnetization       0.0000000
 augmentation part       33.1275952 magnetization       0.0000000

 Free energy of the ion-electron system (eV)
  ---------------------------------------------------
  alpha Z        PSCENC =       488.89906520
  Ewald energy   TEWEN  =     -4743.70317337
  -Hartree energ DENC   =      -755.50562777
  -exchange      EXHF   =         0.00000000
  -V(xc)+E(xc)   XCENC  =        32.20707546
  PAW double counting   =      5708.57716728    -5780.40265367
  entropy T*S    EENTRO =         0.00000000
  eigenvalues    EBANDS =       231.12458704
  atomic energy  EATOM  =      4754.50144563
  Solvation  Ediel_sol  =         0.00000000
[...]
     23       4.6816      1.00000
     24       4.7576      1.00000
     25       4.8935      1.00000
     26       5.0829      1.00000
     27       5.1196      1.00000
     28       5.1654      1.00000
     29       5.4376      1.00000
     30       5.7667      1.00000
     31       5.8724      1.00000
     32       6.0237      1.02920
     33       6.1068      0.67231
     34       6.2720     -0.01908
     35       6.3188      0.00000
     36       6.5692      0.00000
     37       6.6356      0.00000
     38       6.7831      0.00000

 k-point    63 :       0.3125    0.4375    0.4375
  band No.  band energies     occupation 
      1       0.9662      1.00000
      2       1.0367      1.00000
      3       1.4851      1.00000
      4       1.5493      1.00000
      5       1.9111      1.00000
      6       2.0997      1.00000
      7       2.2385      1.00000
      8       2.4260      1.00000
      9       2.8043      1.00000
     10       3.0191      1.00000
     11       3.1201      1.00000
     12       3.2098      1.00000
     13       3.2638      1.00000
     14       3.4668      1.00000
     15       3.5312      1.00000
     16       3.5939      1.00000
     17       3.6489      1.00000
     18       3.7338      1.00000
     19       4.0203      1.00000
     20       4.1108      1.00000
     21       4.2554      1.00000
     22       4.2988      1.00000
     23       4.5157      1.00000
     24       4.6131      1.00000
     25       4.9370      1.00000
     26       5.0171      1.00000
     27       5.1263      1.00000
     28       5.3220      1.00000
     29       5.6540      1.00000
     30       5.6782      1.00000
     31       6.0365      1.00000
     32       6.1774      0.17729
     33       6.4747     -0.08571
     34       6.5752     -0.00532
     35       6.6850      0.00000
     36       6.8252      0.00000
     37       6.9160      0.00000
     38       7.3815      0.00000

 k-point    64 :       0.4375    0.4375    0.4375
  band No.  band energies     occupation 
      1       1.3377      1.00000
      2       1.3780      1.00000
      3       1.5225      1.00000
      4       1.5828      1.00000
      5       1.8533      1.00000
      6       1.9695      1.00000
      7       2.0676      1.00000
      8       2.1716      1.00000
      9       2.6703      1.00000
     10       2.9774      1.00000
     11       2.9809      1.00000
     12       3.0434      1.00000
     13       3.2346      1.00000
     14       3.7103      1.00000
     15       3.7515      1.00000
     16       3.9066      1.00000
     17       4.0748      1.00000
     18       4.1179      1.00000
     19       4.2082      1.00000
     20       4.4148      1.00000
     21       4.5639      1.00000
     22       4.6606      1.00000
     23       4.8570      1.00000
     24       4.9188      1.00000
     25       5.1165      1.00000
     26       5.1709      1.00000
     27       5.2362      1.00000
     28       5.4654      1.00000
     29       5.6433      1.00000
     30       5.7109      1.00000
     31       5.9561      1.00000
     32       6.1391      0.01820
     33       6.6968      0.00000
     34       6.7490      0.00000
     35       6.7642      0.00000
     36       7.1672      0.00000
     37       7.2735      0.00000
     38       7.3321      0.00000


--------------------------------------------------------------------------------------------------------


 soft charge-density along one line, spin component           1
         0         1         2         3         4         5         6         7         8         9
 total charge-density along one line
 
 soft charge-density along one line, spin component           2
         0         1         2         3         4         5         6         7         8         9
 total charge-density along one line
 
 pseudopotential strength for first ion, spin component:           1
 -5.527  -0.000   0.000  -0.077  -0.000  -6.060  -0.000   0.000
 -0.000  -5.502   0.021  -0.000  -0.036  -0.000  -6.036   0.020
  0.000   0.021  -5.784   0.000  -0.022   0.000   0.020  -6.309
 -0.077  -0.000   0.000  -5.527  -0.000  -0.075  -0.000   0.000
 -0.000  -0.036  -0.022  -0.000  -5.759  -0.000  -0.035  -0.022
 -6.060  -0.000   0.000  -0.075  -0.000  -6.551  -0.000   0.000
 -0.000  -6.036   0.020  -0.000  -0.035  -0.000  -6.528   0.020
  0.000   0.020  -6.309   0.000  -0.022   0.000   0.020  -6.791
 -0.075  -0.000   0.000  -6.060  -0.000  -0.072  -0.000   0.000
 -0.000  -0.035  -0.022  -0.000  -6.284  -0.000  -0.034  -0.021
  0.000   0.002   0.001   0.000  -0.001   0.000   0.002   0.001
  0.000   0.004   0.001   0.000  -0.002   0.000   0.004   0.001
  0.000   0.010   0.003  -0.000   0.008   0.000   0.009   0.003
 -0.000  -0.010   0.008  -0.000  -0.001  -0.000  -0.009   0.008
 -0.008  -0.000  -0.000   0.008  -0.000  -0.008  -0.000  -0.000
  0.000   0.012   0.004  -0.000   0.009   0.000   0.012   0.004
 -0.000  -0.012   0.010  -0.000  -0.001  -0.000  -0.012   0.009
 -0.010  -0.000  -0.000   0.010  -0.000  -0.010  -0.000  -0.000
 pseudopotential strength for first ion, spin component:           2
 -4.351   0.000  -0.000   0.040  -0.000  -4.920   0.000  -0.000
  0.000  -4.409  -0.039  -0.000   0.067   0.000  -4.976  -0.038
 -0.000  -0.039  -4.083   0.000  -0.005  -0.000  -0.038  -4.661
  0.040  -0.000   0.000  -4.351  -0.000   0.039  -0.000   0.000
 -0.000   0.067  -0.005  -0.000  -4.077  -0.000   0.065  -0.005
 -4.920   0.000  -0.000   0.039  -0.000  -5.446   0.000  -0.000
  0.000  -4.976  -0.038  -0.000   0.065   0.000  -5.500  -0.036
 -0.000  -0.038  -4.661   0.000  -0.005  -0.000  -0.036  -5.196
  0.039  -0.000   0.000  -4.920  -0.000   0.037  -0.000   0.000
 -0.000   0.065  -0.005  -0.000  -4.656  -0.000   0.063  -0.005
  0.000   0.008   0.003   0.000  -0.005   0.000   0.008   0.003
  0.000   0.015   0.006   0.000  -0.010   0.000   0.015   0.006
  0.000  -0.000   0.003   0.000   0.003   0.000  -0.000   0.003
  0.000   0.000   0.004  -0.000   0.001   0.000   0.000   0.004
 -0.001   0.000  -0.000   0.001  -0.000  -0.001   0.000  -0.000
  0.000  -0.001   0.003   0.000   0.003   0.000  -0.001   0.003
  0.000   0.001   0.004  -0.000   0.001   0.000   0.001   0.004
 -0.001   0.000  -0.000   0.001  -0.000  -0.001   0.000  -0.000
 total augmentation occupancy for first ion, spin component:           1
  1.798   0.000   0.000  -0.089   0.000  -0.864  -0.000   0.000   0.014   0.000  -0.000   0.000   0.000   0.000   0.014   0.000
  0.000   1.829  -0.052  -0.000   0.090   0.000  -0.837   0.060  -0.000  -0.104  -0.021   0.008  -0.004   0.004   0.000  -0.001
  0.000  -0.052   3.596  -0.000  -0.176   0.000   0.061  -2.325   0.000   0.112  -0.020  -0.001   0.018   0.044   0.000  -0.000
 -0.089  -0.000  -0.000   1.798  -0.000   0.014   0.000  -0.000  -0.864  -0.000   0.000   0.000  -0.000   0.000  -0.014   0.000
 -0.000   0.090  -0.176  -0.000   3.799   0.000  -0.105   0.112  -0.000  -2.454   0.034   0.003   0.041  -0.005   0.000  -0.002
 -0.864   0.000  -0.000   0.014   0.000   1.316  -0.000   0.000  -0.001  -0.000   0.000  -0.000  -0.000   0.000  -0.013   0.000
 -0.000  -0.837   0.061   0.000  -0.105   0.000   1.274  -0.052   0.000   0.090   0.007  -0.003   0.010  -0.010  -0.000  -0.000
 -0.000   0.060  -2.325  -0.000   0.112   0.000  -0.052   2.283   0.000  -0.081   0.009   0.002  -0.011  -0.020   0.000  -0.000
  0.014  -0.000   0.000  -0.864  -0.000  -0.001   0.000   0.000   1.316   0.000   0.000   0.000   0.000  -0.000   0.013   0.000
 -0.000  -0.104   0.112  -0.000  -2.454   0.000   0.090  -0.081   0.000   2.377  -0.015  -0.004  -0.017  -0.001  -0.000   0.000
 -0.000  -0.021  -0.020   0.000   0.034   0.000   0.007   0.009  -0.000  -0.015   2.397  -0.265   0.003  -0.003   0.000   0.001
 -0.000   0.008  -0.001  -0.000   0.003  -0.000  -0.003   0.002  -0.000  -0.004  -0.265   0.036   0.001  -0.001   0.000  -0.000
 -0.000  -0.004   0.018  -0.000   0.041   0.000   0.010  -0.011  -0.000  -0.017   0.003   0.001   0.295   0.003  -0.000  -0.024
  0.000   0.004   0.044   0.000  -0.005  -0.000  -0.010  -0.020   0.000  -0.001  -0.003  -0.001   0.003   0.295  -0.000  -0.000
  0.014  -0.000  -0.000  -0.014   0.000  -0.013   0.000   0.000   0.013  -0.000   0.000   0.000   0.000   0.000   0.295  -0.000
 -0.000  -0.001  -0.000   0.000  -0.002  -0.000  -0.000  -0.000   0.000   0.000   0.001  -0.000  -0.024  -0.000   0.000   0.002
  0.000   0.001  -0.002  -0.000   0.001   0.000   0.000  -0.000   0.000  -0.000  -0.001   0.000  -0.000  -0.024   0.000   0.000
  0.000   0.000   0.000  -0.000  -0.000   0.000   0.000   0.000  -0.000  -0.000   0.000   0.000  -0.000  -0.000  -0.024  -0.000
 total augmentation occupancy for first ion, spin component:           2
  0.914  -0.000   0.000   0.048  -0.000  -0.190  -0.000   0.000   0.072  -0.000   0.000  -0.000   0.000   0.000   0.038  -0.000
 -0.000   0.677  -0.175  -0.000   0.303   0.000  -0.091   0.079   0.000  -0.137   0.043  -0.002  -0.050   0.050   0.000   0.002
  0.000  -0.175   2.871   0.000  -0.141   0.000   0.078  -1.392   0.000   0.113  -0.018  -0.002   0.020   0.032  -0.000   0.000
  0.048  -0.000   0.000   0.914   0.000   0.072   0.000  -0.000  -0.190  -0.000   0.000   0.000   0.000   0.000  -0.038   0.000
  0.000   0.303  -0.141  -0.000   3.033   0.000  -0.136   0.113   0.000  -1.523   0.031   0.003   0.026   0.005   0.000   0.000
 -0.190   0.000   0.000   0.072   0.000  -0.218   0.000   0.000  -0.109   0.000   0.000  -0.000   0.000   0.000  -0.016   0.000
 -0.000  -0.091   0.078   0.000  -0.136   0.000  -0.242  -0.024   0.000   0.041  -0.016   0.006   0.020  -0.020   0.000  -0.003
  0.000   0.079  -1.392  -0.000   0.113  -0.000  -0.024   0.588   0.000  -0.078   0.024   0.001  -0.023  -0.048   0.000   0.000
  0.072   0.000   0.000  -0.190  -0.000  -0.109   0.000   0.000  -0.218  -0.000   0.000   0.000   0.000   0.000   0.016   0.000
  0.000  -0.137   0.113  -0.000  -1.523  -0.000   0.041  -0.078  -0.000   0.678  -0.041  -0.002  -0.042   0.001  -0.000   0.000
  0.000   0.043  -0.018   0.000   0.031   0.000  -0.016   0.024   0.000  -0.041  -0.176   0.082   0.024  -0.024   0.000   0.000
  0.000  -0.002  -0.002   0.000   0.003  -0.000   0.006   0.001   0.000  -0.002   0.082  -0.015   0.001  -0.001   0.000  -0.000
 -0.000  -0.050   0.020   0.000   0.026  -0.000   0.020  -0.023   0.000  -0.042   0.024   0.001   0.008   0.001   0.000   0.005
  0.000   0.050   0.032   0.000   0.005   0.000  -0.020  -0.048  -0.000   0.001  -0.024  -0.001   0.001   0.008   0.000   0.001
  0.038   0.000  -0.000  -0.038   0.000  -0.016   0.000   0.000   0.016  -0.000   0.000   0.000   0.000   0.000  -0.010   0.000
  0.000   0.002   0.000  -0.000   0.000  -0.000  -0.003   0.000   0.000   0.000   0.000  -0.000   0.005   0.001   0.000  -0.001
 -0.000  -0.002   0.000   0.000   0.000   0.000   0.003   0.001   0.000  -0.000  -0.000   0.000   0.001   0.005   0.000  -0.000
 -0.002   0.000   0.000   0.002   0.000   0.002  -0.000  -0.000  -0.002   0.000   0.000   0.000  -0.000   0.000   0.005  -0.000


------------------------ aborting loop because EDIFF is reached ----------------------------------------


 


 total charge     
 
# of ion       s       p       d       tot
------------------------------------------
    1        0.495   0.551   6.223   7.269
    2        0.486   0.548   6.262   7.296
    3        0.495   0.551   6.223   7.269
    4        0.495   0.549   6.222   7.266
    5        0.495   0.549   6.222   7.266
    6        0.495   0.551   6.223   7.269
    7        0.495   0.551   6.223   7.269
    8        0.486   0.548   6.262   7.296
--------------------------------------------------
tot          3.942   4.397  49.861  58.200
 


 magnetization (x)
 
# of ion       s       p       d       tot
------------------------------------------
    1        0.018   0.025   1.935   1.979
    2        0.005  -0.011   1.635   1.629
    3        0.018   0.025   1.935   1.979
    4       -0.000  -0.013   2.333   2.319
    5        0.000   0.013  -2.333  -2.319
    6       -0.018  -0.025  -1.935  -1.979
    7       -0.018  -0.025  -1.935  -1.979
    8       -0.005   0.011  -1.635  -1.629
--------------------------------------------------
tot         -0.000  -0.000   0.000   0.000
 
    CHARGE:  cpu time    0.3342: real time    0.3353
    FORLOC:  cpu time    0.0026: real time    0.0026
    FORNL :  cpu time    1.8655: real time    1.8709
    STRESS:  cpu time    1.5928: real time    1.5978
    FORCOR:  cpu time    0.0555: real time    0.0557
    FORHAR:  cpu time    0.0067: real time    0.0068
    MIXING:  cpu time    0.0022: real time    0.0022
    OFIELD:  cpu time    0.0000: real time    0.0000

  FORCE on cell =-STRESS in cart. coord.  units (eV):
  Direction    XX          YY          ZZ          XY          YZ          ZX
  --------------------------------------------------------------------------------------
  Alpha Z   488.89907   488.89907   488.89907
  Ewald   -1581.23673 -1581.23673 -1581.23673     0.00000     0.00000    -0.00000
  Hartree   253.41049   251.04860   251.04860     0.00000    -0.39137    -0.00000
  E(xc)    -316.17080  -315.85543  -315.85543     0.00000     0.04451     0.00000
  Local     467.37718   473.78556   473.78556    -0.00000     0.97613     0.00000
  n-local  -206.99664  -207.14701  -207.22029     4.27021     0.29532     3.03490
  augment   309.80915   307.55183   307.55183     0.00000    -0.29499    -0.00000
  Kinetic   585.03770   581.58348   582.46664     6.87938     0.28369     5.96542
  Fock        0.00000     0.00000     0.00000     0.00000     0.00000     0.00000
  -------------------------------------------------------------------------------------
  Total       0.12942    -0.96569    -0.96569     0.00000     0.89364     0.00000
  in kB       2.29189   -17.10111   -17.10111     0.00000    15.82517     0.00000
  external pressure =      -10.64 kB  Pullay stress =        0.00 kB


 VOLUME and BASIS-vectors are now :
 -----------------------------------------------------------------------------
  energy-cutoff  :      520.00
  volume of cell :       90.47
      direct lattice vectors                 reciprocal lattice vectors
     2.828059000  0.000000000  0.000000000     0.353599412  0.000000000  0.000000000
     0.000000000  2.828059000  2.828059000     0.000000000  0.176799706  0.176799706
     0.000000000 -5.656118000  5.656118000     0.000000000 -0.088399853  0.088399853

  length of vectors
     2.828059000  3.999479393  7.998958786     0.353599412  0.250032542  0.125016271


 FORCES acting on ions
    electron-ion (+dipol)            ewald-force                    non-local-force                 convergence-correction
 -----------------------------------------------------------------------------------------------
   -.204E-14 -.348E+00 0.348E+00   0.130E-13 -.568E-13 -.284E-13   -.867E-18 0.188E+00 -.188E+00   -.902E-14 -.743E-04 0.743E-04
   -.137E-14 0.115E-13 0.108E-12   0.121E-13 -.184E-13 -.383E-13   0.000E+00 0.662E-21 -.768E-21   -.622E-14 -.788E-13 0.842E-13
   -.220E-14 0.348E+00 -.348E+00   0.119E-13 -.284E-13 -.568E-13   0.867E-18 -.188E+00 0.188E+00   -.965E-14 0.743E-04 -.743E-04
   0.156E-12 0.862E-12 -.874E-12   -.598E-14 0.387E-13 0.186E-13   0.000E+00 -.318E-21 0.741E-21   -.263E-13 -.905E-13 0.784E-13
   -.132E-14 -.122E-12 0.239E-12   0.112E-13 -.284E-13 -.299E-13   0.000E+00 -.424E-21 -.424E-21   -.553E-14 0.402E-13 -.386E-13
   0.158E-12 0.348E+00 -.348E+00   -.669E-14 0.284E-13 0.568E-13   0.867E-18 -.188E+00 0.188E+00   -.312E-13 0.743E-04 -.743E-04
   0.158E-12 -.348E+00 0.348E+00   -.697E-14 0.568E-13 0.284E-13   -.867E-18 0.188E+00 -.188E+00   -.321E-13 -.743E-04 0.743E-04
   0.156E-12 -.652E-12 0.640E-12   -.785E-14 0.280E-13 0.284E-13   0.000E+00 -.953E-21 -.741E-21   -.265E-13 0.369E-13 -.460E-13
 -----------------------------------------------------------------------------------------------
   0.622E-12 0.182E-11 -.147E-11   0.207E-13 0.198E-13 -.213E-13   0.000E+00 -.833E-16 0.278E-16   -.147E-12 0.471E-13 -.637E-13
 
 
 POSITION                                       TOTAL-FORCE (eV/Angst)
 -----------------------------------------------------------------------------------
      0.00000      0.00000      0.00000        -0.000000     -0.159941      0.159941
      0.00000      0.00000      2.82806        -0.000000     -0.000000      0.000000
      0.00000     -2.82806      2.82806        -0.000000      0.159941     -0.159941
      1.41403     -1.41403      1.41403        -0.000000     -0.000000      0.000000
      0.00000     -2.82806      5.65612        -0.000000     -0.000000      0.000000
      1.41403      1.41403      1.41403         0.000000      0.159941     -0.159941
      1.41403     -1.41403      4.24209         0.000000     -0.159941      0.159941
      1.41403     -4.24209      4.24209        -0.000000     -0.000000      0.000000
 -----------------------------------------------------------------------------------
    total drift:                                0.000000      0.000000     -0.000000


--------------------------------------------------------------------------------------------------------



  FREE ENERGIE OF THE ION-ELECTRON SYSTEM (eV)
  ---------------------------------------------------
  free  energy   TOTEN  =       -64.30211422 eV

  energy  without entropy=      -64.30211422  energy(sigma->0) =      -64.30211422
 


--------------------------------------------------------------------------------------------------------


    POTLOK:  cpu time    0.7170: real time    0.7187


--------------------------------------------------------------------------------------------------------


     LOOP+:  cpu time  123.4432: real time  123.9859
    4ORBIT:  cpu time    0.0000: real time    0.0000
 


 total charge     
 
# of ion       s       p       d       tot
------------------------------------------
    1        0.495   0.551   6.223   7.269
    2        0.486   0.548   6.262   7.296
    3        0.495   0.551   6.223   7.269
    4        0.495   0.549   6.222   7.266
    5        0.495   0.549   6.222   7.266
    6        0.495   0.551   6.223   7.269
    7        0.495   0.551   6.223   7.269
    8        0.486   0.548   6.262   7.296
--------------------------------------------------
tot          3.942   4.397  49.861  58.200
 


 magnetization (x)
 
# of ion       s       p       d       tot
------------------------------------------
    1        0.018   0.025   1.935   1.979
    2        0.005  -0.011   1.635   1.629
    3        0.018   0.025   1.935   1.979
    4       -0.000  -0.013   2.333   2.319
    5        0.000   0.013  -2.333  -2.319
    6       -0.018  -0.025  -1.935  -1.979
    7       -0.018  -0.025  -1.935  -1.979
    8       -0.005   0.011  -1.635  -1.629
--------------------------------------------------
tot         -0.000  -0.000   0.000   0.000
 
 BZINTS: Fermi energy:  6.127971; 64.000000 electrons
         Band energy: 231.124587;  BLOECHL correction: -0.043000

 total amount of memory used by VASP MPI-rank0    67190. kBytes
=======================================================================

   base      :      30000. kBytes
   nonl-proj :       5793. kBytes
   fftplans  :       1786. kBytes
   grid      :       4023. kBytes
   one-center:         62. kBytes
   wavefun   :      25526. kBytes
 
  
  
 General timing and accounting informations for this job:
 ========================================================
  
                  Total CPU time used (sec):      127.367
                            User time (sec):      126.595
                          System time (sec):        0.772
                         Elapsed time (sec):      128.803
  
                   Maximum memory used (kb):       94648.
                   Average memory used (kb):           0.
  
                          Minor page faults:        36906
                          Major page faults:            0
                 Voluntary context switches:         1390
