=========================================
SLURM_JOB_ID = 63457540
SLURM_JOB_NODELIST = lnode21
SLURM_GPUS = 
SLURM_CPUS_ON_NODE = 8
SLURM_JOB_PARTITION = lenovo
SLURM_TASK_PID = 4157197
CUDA_VISIBLE_DEVICES = 
==========================================
 running on    8 total cores
 distrk:  each k-point on    8 cores,    1 groups
 distr:  one band on    4 cores,    2 groups
 using from now: INCAR     
 vasp.5.4.4.18Apr17-6-g9f103f2a35 (build Apr 28 2018 00:24:27) complex          
  
 POSCAR found type information on POSCAR  Eu
 POSCAR found :  1 types and       4 ions
 scaLAPACK will be used

 ----------------------------------------------------------------------------- 
|                                                                             |
|  ADVICE TO THIS USER RUNNING 'VASP/VAMP'   (HEAR YOUR MASTER'S VOICE ...):  |
|                                                                             |
|      You have a (more or less) 'small supercell' and for smaller cells      |
|      it is recommended  to use the reciprocal-space projection scheme!      |
|      The real space optimization is not  efficient for small cells and it   |
|      is also less accurate ...                                              |
|      Therefore set LREAL=.FALSE. in the  INCAR file                         |
|                                                                             |
 ----------------------------------------------------------------------------- 

 LDA part: xc-table for Pade appr. of Perdew
 POSCAR, INCAR and KPOINTS ok, starting setup
 FFT: planning ...
 WAVECAR not read
 entering main loop
       N       E                     dE             d eps       ncg     rms          rms(c)
DAV:   1     0.744147699805E+03    0.74415E+03   -0.19949E+04 10084   0.200E+03
DAV:   2     0.143490021847E+03   -0.60066E+03   -0.47987E+03 10496   0.316E+02
DAV:   3    -0.924882546029E+01   -0.15274E+03   -0.14722E+03  9148   0.177E+02
DAV:   4    -0.278248997412E+02   -0.18576E+02   -0.17584E+02 13108   0.553E+01
DAV:   5    -0.295827728063E+02   -0.17579E+01   -0.17127E+01 15804   0.180E+01    0.224E+01
DAV:   6    -0.442579850289E+02   -0.14675E+02   -0.57131E+01 10652   0.698E+01    0.302E+01
DAV:   7    -0.426309215288E+02    0.16271E+01   -0.86761E+00 10956   0.182E+01    0.108E+01
DAV:   8    -0.410300332429E+02    0.16009E+01   -0.33332E+00 11816   0.139E+01    0.345E+00
DAV:   9    -0.410834607517E+02   -0.53428E-01   -0.17057E+00 11860   0.104E+01    0.391E+00
DAV:  10    -0.410561899318E+02    0.27271E-01   -0.31455E-01 13008   0.383E+00    0.127E+00
DAV:  11    -0.411208502592E+02   -0.64660E-01   -0.52158E-02 14780   0.114E+00    0.636E-01
DAV:  12    -0.411570556647E+02   -0.36205E-01   -0.39275E-02 11780   0.950E-01    0.572E-01
DAV:  13    -0.411577042198E+02   -0.64856E-03   -0.14442E-02 12332   0.726E-01    0.184E-01
DAV:  14    -0.411561836950E+02    0.15205E-02   -0.12268E-02 12860   0.345E-01    0.136E-01
DAV:  15    -0.411557618845E+02    0.42181E-03   -0.13052E-03 14072   0.157E-01    0.121E-01
DAV:  16    -0.411553455569E+02    0.41633E-03   -0.78994E-04 13636   0.194E-01    0.363E-02
DAV:  17    -0.411557648995E+02   -0.41934E-03   -0.17627E-04 13580   0.592E-02    0.902E-03
DAV:  18    -0.411558728531E+02   -0.10795E-03   -0.31028E-05 14992   0.261E-02    0.354E-03
DAV:  19    -0.411558488531E+02    0.24000E-04   -0.55488E-06 13324   0.815E-03    0.175E-03
DAV:  20    -0.411558601098E+02   -0.11257E-04   -0.11177E-06 10688   0.330E-03    0.108E-03
DAV:  21    -0.411558549751E+02    0.51347E-05   -0.12206E-07  7412   0.197E-03    0.871E-04
DAV:  22    -0.411558508267E+02    0.41484E-05   -0.43955E-08  4984   0.174E-03    0.295E-04
DAV:  23    -0.411558501194E+02    0.70732E-06   -0.17820E-08  4840   0.706E-04    0.252E-04
DAV:  24    -0.411558502013E+02   -0.81845E-07   -0.95758E-09  4760   0.862E-04
   1 F= -.41155850E+02 E0= -.41155850E+02  d E =0.000000E+00  mag=    29.7446
