=========================================
SLURM_JOB_ID = 29456383
SLURM_JOB_NODELIST = lnode39
SLURM_GPUS = 
SLURM_CPUS_ON_NODE = 8
SLURM_JOB_PARTITION = lenovo
SLURM_TASK_PID = 745632
CUDA_VISIBLE_DEVICES = 
==========================================
 running on    8 total cores
 distrk:  each k-point on    8 cores,    1 groups
 distr:  one band on    8 cores,    1 groups
 using from now: INCAR     
 vasp.5.4.4.18Apr17-6-g9f103f2a35 (build Apr 28 2018 00:24:27) complex          
  
 POSCAR found type information on POSCAR  Mn Bi
 POSCAR found :  2 types and       4 ions
 scaLAPACK will be used

 ----------------------------------------------------------------------------- 
|                                                                             |
|           W    W    AA    RRRRR   N    N  II  N    N   GGGG   !!!           |
|           W    W   A  A   R    R  NN   N  II  NN   N  G    G  !!!           |
|           W    W  A    A  R    R  N N  N  II  N N  N  G       !!!           |
|           W WW W  AAAAAA  RRRRR   N  N N  II  N  N N  G  GGG   !            |
|           WW  WW  A    A  R   R   N   NN  II  N   NN  G    G                |
|           W    W  A    A  R    R  N    N  II  N    N   GGGG   !!!           |
|                                                                             |
|      For optimal performance we recommend to set                            |
|        NCORE= 4 - approx SQRT( number of cores)                             |
|      NCORE specifies how many cores store one orbital (NPAR=cpu/NCORE).     |
|      This setting can  greatly improve the performance of VASP for DFT.     |
|      The default,   NCORE=1            might be grossly inefficient         |
|      on modern multi-core architectures or massively parallel machines.     |
|      Do your own testing !!!!                                               |
|      Unfortunately you need to use the default for GW and RPA calculations. |
|      (for HF NCORE is supported but not extensively tested yet)             |
|                                                                             |
 ----------------------------------------------------------------------------- 

 LDA part: xc-table for Pade appr. of Perdew
 POSCAR, INCAR and KPOINTS ok, starting setup
 FFT: planning ...
 WAVECAR not read
 entering main loop
       N       E                     dE             d eps       ncg     rms          rms(c)
DAV:   1     0.144748017495E+03    0.14475E+03   -0.83123E+03108032   0.125E+03
DAV:   2    -0.729696932810E+01   -0.15204E+03   -0.14832E+03108040   0.310E+02
DAV:   3    -0.242353299382E+02   -0.16938E+02   -0.16642E+02180032   0.977E+01
DAV:   4    -0.249232719683E+02   -0.68794E+00   -0.68375E+00160416   0.217E+01
DAV:   5    -0.249500521091E+02   -0.26780E-01   -0.26734E-01180800   0.433E+00    0.136E+01
DAV:   6    -0.289962745216E+02   -0.40462E+01   -0.83764E+01204944   0.141E+02    0.335E+01
DAV:   7    -0.225075336934E+02    0.64887E+01   -0.58939E+01189048   0.853E+01    0.585E+00
DAV:   8    -0.227766449058E+02   -0.26911E+00   -0.16023E+00172040   0.108E+01    0.288E+00
DAV:   9    -0.227689522780E+02    0.76926E-02   -0.56156E-01191968   0.124E+01    0.153E+00
DAV:  10    -0.227975320642E+02   -0.28580E-01   -0.79369E-02146680   0.219E+00    0.102E+00
DAV:  11    -0.228079120718E+02   -0.10380E-01   -0.35700E-02163576   0.186E+00    0.237E-01
DAV:  12    -0.228085605682E+02   -0.64850E-03   -0.33638E-03171568   0.790E-01    0.107E-01
DAV:  13    -0.228085754668E+02   -0.14899E-04   -0.60503E-04176200   0.357E-01    0.612E-02
DAV:  14    -0.228085732473E+02    0.22195E-05   -0.23193E-04174272   0.250E-01    0.635E-02
DAV:  15    -0.228085874573E+02   -0.14210E-04   -0.11088E-04170760   0.198E-01    0.121E-02
DAV:  16    -0.228085899266E+02   -0.24692E-05   -0.11792E-05155528   0.286E-02    0.510E-03
DAV:  17    -0.228085907250E+02   -0.79840E-06   -0.83369E-07 90728   0.143E-02
   1 F= -.22808591E+02 E0= -.22808429E+02  d E =-.484288E-03  mag=    -0.0000
