 vasp.5.4.4.18Apr17-6-g9f103f2a35 (build Apr 28 2018 00:24:27) complex          
  
 executed on             LinuxIFC date 2021.03.25  02:01:04
 running on    8 total cores
 distrk:  each k-point on    8 cores,    1 groups
 distr:  one band on NCORES_PER_BAND=   8 cores,    1 groups


--------------------------------------------------------------------------------------------------------


 INCAR:
 POTCAR:    PAW_PBE Mn 06Sep2000                  
 POTCAR:    PAW_PBE Bi 08Apr2002                  

 ----------------------------------------------------------------------------- 
|                                                                             |
|           W    W    AA    RRRRR   N    N  II  N    N   GGGG   !!!           |
|           W    W   A  A   R    R  NN   N  II  NN   N  G    G  !!!           |
|           W    W  A    A  R    R  N N  N  II  N N  N  G       !!!           |
|           W WW W  AAAAAA  RRRRR   N  N N  II  N  N N  G  GGG   !            |
|           WW  WW  A    A  R   R   N   NN  II  N   NN  G    G                |
|           W    W  A    A  R    R  N    N  II  N    N   GGGG   !!!           |
|                                                                             |
|      For optimal performance we recommend to set                            |
|        NCORE= 4 - approx SQRT( number of cores)                             |
|      NCORE specifies how many cores store one orbital (NPAR=cpu/NCORE).     |
|      This setting can  greatly improve the performance of VASP for DFT.     |
|      The default,   NCORE=1            might be grossly inefficient         |
|      on modern multi-core architectures or massively parallel machines.     |
|      Do your own testing !!!!                                               |
|      Unfortunately you need to use the default for GW and RPA calculations. |
|      (for HF NCORE is supported but not extensively tested yet)             |
|                                                                             |
 ----------------------------------------------------------------------------- 

 POTCAR:    PAW_PBE Mn 06Sep2000                  
   SHA256 =  791c87526310ff945dc83749a51ee60ee299d345ff72743aeb14609b9ed68bfc Mn
   COPYR  = (c) Copyright 06Sep2000 Georg Kresse                                
   COPYR  = This file is part of the software VASP. Any use, copying, and all ot
   COPYR  = If you do not have a valid VASP license, you may not use, copy or di
   VRHFIN =Mn: d6 s1                                                            
   LEXCH  = PE                                                                  
   EATOM  =   416.7541 eV,   30.6306 Ry                                         
                                                                                
   TITEL  = PAW_PBE Mn 06Sep2000                                                
   LULTRA =        F    use ultrasoft PP ?                                      
   IUNSCR =        1    unscreen: 0-lin 1-nonlin 2-no                           
   RPACOR =    2.000    partial core radius                                     
   POMASS =   54.938; ZVAL   =    7.000    mass and valenz                      
   RCORE  =    2.300    outmost cutoff radius                                   
   RWIGS  =    2.500; RWIGS  =    1.323    wigner-seitz radius (au A)           
   ENMAX  =  269.864; ENMIN  =  202.398 eV                                      
   RCLOC  =    1.725    cutoff for local pot                                    
   LCOR   =        T    correct aug charges                                     
   LPAW   =        T    paw PP                                                  
   EAUG   =  500.711                                                            
   DEXC   =    0.000                                                            
   RMAX   =    2.343    core radius for proj-oper                               
   RAUG   =    1.300    factor for augmentation sphere                          
   RDEP   =    2.338    radius for radial grids                                 
   RDEPT  =    1.911    core radius for aug-charge                              
                                                                                
   Atomic configuration                                                         
    9 entries                                                                   
     n  l   j            E        occ.                                          
     1  0  0.50     -6424.8288   2.0000                                         
     2  0  0.50      -739.1154   2.0000                                         
     2  1  1.50      -625.3949   6.0000                                         
     3  0  0.50       -81.6100   2.0000                                         
     3  1  1.50       -50.4667   6.0000                                         
     3  2  2.50        -3.3745   6.0000                                         
     4  0  0.50        -4.1331   1.0000                                         
     4  1  0.50        -4.0817   0.0000                                         
     4  3  2.50        -1.3606   0.0000                                         
   Description                                                                  
     l       E           TYP  RCUT    TYP  RCUT                                 
     2     -3.3744664     23  2.300                                             
     2     -4.7350490     23  2.300                                             
     0     -4.1331408     23  2.300                                             
     0      7.6656614     23  2.300                                             
     1     -2.7211652     23  2.300                                             
     1     20.4087390     23  2.300                                             
  local pseudopotential read in
  partial core-charges read in
  partial kinetic energy density read in
  atomic valenz-charges read in
  non local Contribution for L=           2  read in
    real space projection operators read in
  non local Contribution for L=           2  read in
    real space projection operators read in
  non local Contribution for L=           0  read in
    real space projection operators read in
  non local Contribution for L=           0  read in
    real space projection operators read in
  non local Contribution for L=           1  read in
    real space projection operators read in
  non local Contribution for L=           1  read in
    real space projection operators read in
    PAW grid and wavefunctions read in
 
   number of l-projection  operators is LMAX  =           6
   number of lm-projection operators is LMMAX =          18
 
 POTCAR:    PAW_PBE Bi 08Apr2002                  
   SHA256 =  d6b6753ed5db3f0e277fb15e6dbb6699c4bc829850a481068e9e7236faeca489 Bi
   COPYR  = (c) Copyright 08Apr2002 Georg Kresse                                
   COPYR  = This file is part of the software VASP. Any use, copying, and all ot
   COPYR  = If you do not have a valid VASP license, you may not use, copy or di
   VRHFIN =Bi:                                                                  
   LEXCH  = PE                                                                  
   EATOM  =   150.8133 eV,   11.0845 Ry                                         
                                                                                
   TITEL  = PAW_PBE Bi 08Apr2002                                                
   LULTRA =        F    use ultrasoft PP ?                                      
   IUNSCR =        1    unscreen: 0-lin 1-nonlin 2-no                           
   RPACOR =    2.200    partial core radius                                     
   POMASS =  208.980; ZVAL   =    5.000    mass and valenz                      
   RCORE  =    3.000    outmost cutoff radius                                   
   RWIGS  =    3.090; RWIGS  =    1.635    wigner-seitz radius (au A)           
   ENMAX  =  105.037; ENMIN  =   78.777 eV                                      
   ICORE  =        3    local potential                                         
   LCOR   =        T    correct aug charges                                     
   LPAW   =        T    paw PP                                                  
   EAUG   =  265.427                                                            
   DEXC   =    0.000                                                            
   RMAX   =    3.067    core radius for proj-oper                               
   RAUG   =    1.300    factor for augmentation sphere                          
   RDEP   =    3.012    radius for radial grids                                 
   RDEPT  =    2.604    core radius for aug-charge                              
                                                                                
   Atomic configuration                                                         
   17 entries                                                                   
     n  l   j            E        occ.                                          
     1  0  0.50    -90639.6582   2.0000                                         
     2  0  0.50    -16282.4667   2.0000                                         
     2  1  1.50    -13922.8287   6.0000                                         
     3  0  0.50     -3930.4763   2.0000                                         
     3  1  1.50     -3256.7013   6.0000                                         
     3  2  2.50     -2581.6169  10.0000                                         
     4  0  0.50      -902.2614   2.0000                                         
     4  1  1.50      -681.5915   6.0000                                         
     4  2  2.50      -429.8249  10.0000                                         
     4  3  3.50      -152.6004  14.0000                                         
     5  0  0.50      -157.7156   2.0000                                         
     5  1  1.50       -95.8054   6.0000                                         
     5  2  2.50       -27.0806  10.0000                                         
     6  0  0.50       -14.4732   2.0000                                         
     6  1  1.50        -4.5702   3.0000                                         
     6  2  2.50        -2.7212   0.0000                                         
     5  3  2.50        -2.7212   0.0000                                         
   Description                                                                  
     l       E           TYP  RCUT    TYP  RCUT                                 
     0    -14.4732299     23  3.000                                             
     0    -12.2452434     23  3.000                                             
     1     -4.5701666     23  3.000                                             
     1    -13.6058260     23  3.000                                             
     2     -2.7211652     23  3.000                                             
     3     -1.3605826      7  3.000                                             
  local pseudopotential read in
  partial core-charges read in
  partial kinetic energy density read in
  kinetic energy density of atom read in
  atomic valenz-charges read in
  non local Contribution for L=           0  read in
    real space projection operators read in
  non local Contribution for L=           0  read in
    real space projection operators read in
  non local Contribution for L=           1  read in
    real space projection operators read in
  non local Contribution for L=           1  read in
    real space projection operators read in
  non local Contribution for L=           2  read in
    real space projection operators read in
    PAW grid and wavefunctions read in
 
   number of l-projection  operators is LMAX  =           5
   number of lm-projection operators is LMMAX =          13
 
  PAW_PBE Mn 06Sep2000                  :
 energy of atom  1       EATOM= -416.7541
 kinetic energy error for atom=    0.0024 (will be added to EATOM!!)
  PAW_PBE Bi 08Apr2002                  :
 energy of atom  2       EATOM= -150.8133
 kinetic energy error for atom=    0.0001 (will be added to EATOM!!)
 
 
 POSCAR: Mn1 Bi1 str #: 2                        
  positions in direct lattice
  No initial velocities read in
 exchange correlation table for  LEXCH =        8
   RHO(1)=    0.500       N(1)  =     2000
   RHO(2)=  100.500       N(2)  =     4000
 


--------------------------------------------------------------------------------------------------------


 ion  position               nearest neighbor table
   1  0.500  0.750  0.000-   3 2.76   3 2.76   4 2.76   4 2.76
   2  0.000  0.250  0.500-   4 2.76   4 2.76   3 2.76   3 2.76
   3  0.000  0.000  0.000-   1 2.76   1 2.76   2 2.76   2 2.76
   4  0.500  0.500  0.500-   2 2.76   2 2.76   1 2.76   1 2.76
 

IMPORTANT INFORMATION: All symmetrisations will be switched off!
NOSYMM: (Re-)initialisation of all symmetry stuff for point group C_1.

 
 

Automatic generation of k-mesh.
 generate k-points for:    3    2    3
Space group operators:
 irot       det(A)        alpha          n_x          n_y          n_z        tau_x        tau_y        tau_z
    1     1.000000     0.000000     1.000000     0.000000     0.000000     0.000000     0.000000     0.000000
 
 Subroutine IBZKPT returns following result:
 ===========================================
 
 Found     10 irreducible k-points:
 
 Following reciprocal coordinates:
            Coordinates               Weight
  0.000000  0.000000  0.000000      1.000000
  0.333333 -0.000000  0.000000      2.000000
  0.000000  0.500000  0.000000      1.000000
  0.333333  0.500000 -0.000000      2.000000
  0.000000 -0.000000  0.333333      2.000000
  0.333333 -0.000000  0.333333      2.000000
 -0.333333  0.000000  0.333333      2.000000
  0.000000  0.500000  0.333333      2.000000
  0.333333  0.500000  0.333333      2.000000
 -0.333333  0.500000  0.333333      2.000000
 
 Following cartesian coordinates:
            Coordinates               Weight
  0.000000  0.000000  0.000000      1.000000
  0.074065  0.000000  0.000000      2.000000
  0.000000  0.064142  0.045355      1.000000
  0.074065  0.064142  0.045355      2.000000
  0.000000 -0.042761  0.060474      2.000000
  0.074065 -0.042761  0.060474      2.000000
 -0.074065 -0.042761  0.060474      2.000000
  0.000000  0.021381  0.105829      2.000000
  0.074065  0.021381  0.105829      2.000000
 -0.074065  0.021381  0.105829      2.000000
 


--------------------------------------------------------------------------------------------------------




 Dimension of arrays:
   k-points           NKPTS =     10   k-points in BZ     NKDIM =     10   number of bands    NBANDS=     16
   number of dos      NEDOS =    301   number of ions     NIONS =      4
   non local maximal  LDIM  =      6   non local SUM 2l+1 LMDIM =     18
   total plane-waves  NPLWV =  62208
   max r-space proj   IRMAX =      1   max aug-charges    IRDMAX=  46160
   dimension x,y,z NGX =    36 NGY =   48 NGZ =   36
   dimension x,y,z NGXF=    72 NGYF=   96 NGZF=   72
   support grid    NGXF=    72 NGYF=   96 NGZF=   72
   ions per type =               2   2
   NGX,Y,Z   is equivalent  to a cutoff of  13.30, 12.54, 13.30 a.u.
   NGXF,Y,Z  is equivalent  to a cutoff of  26.60, 25.07, 26.60 a.u.

 SYSTEM =  BiMn                                    
 POSCAR =  Mn1 Bi1 str #: 2                        

 Startparameter for this run:
   NWRITE =      2    write-flag & timer
   PREC   = accura    normal or accurate (medium, high low for compatibility)
   ISTART =      0    job   : 0-new  1-cont  2-samecut
   ICHARG =      2    charge: 1-file 2-atom 10-const
   ISPIN  =      2    spin polarized calculation?
   LNONCOLLINEAR =      F non collinear calculations
   LSORBIT =      F    spin-orbit coupling
   INIWAV =      1    electr: 0-lowe 1-rand  2-diag
   LASPH  =      F    aspherical Exc in radial PAW
   METAGGA=      F    non-selfconsistent MetaGGA calc.

 Electronic Relaxation 1
   ENCUT  =  500.0 eV  36.75 Ry    6.06 a.u.   8.21 11.60  8.21*2*pi/ulx,y,z
   ENINI  =  500.0     initial cutoff
   ENAUG  =  500.7 eV  augmentation charge cutoff
   NELM   =     60;   NELMIN=  2; NELMDL= -5     # of ELM steps 
   EDIFF  = 0.1E-05   stopping-criterion for ELM
   LREAL  =      F    real-space projection
   NLSPLINE    = F    spline interpolate recip. space projectors
   LCOMPAT=      F    compatible to vasp.4.4
   GGA_COMPAT  = T    GGA compatible to vasp.4.4-vasp.4.6
   LMAXPAW     = -100 max onsite density
   LMAXMIX     =    2 max onsite mixed and CHGCAR
   VOSKOWN=      0    Vosko Wilk Nusair interpolation
   ROPT   =    0.00000   0.00000
 Ionic relaxation
   EDIFFG = 0.1E-04   stopping-criterion for IOM
   NSW    =      0    number of steps for IOM
   NBLOCK =      1;   KBLOCK =      1    inner block; outer block 
   IBRION =     -1    ionic relax: 0-MD 1-quasi-New 2-CG
   NFREE  =      1    steps in history (QN), initial steepest desc. (CG)
   ISIF   =      2    stress and relaxation
   IWAVPR =     10    prediction:  0-non 1-charg 2-wave 3-comb
   ISYM   =      0    0-nonsym 1-usesym 2-fastsym
   LCORR  =      T    Harris-Foulkes like correction to forces

   POTIM  = 0.5000    time-step for ionic-motion
   TEIN   =    0.0    initial temperature
   TEBEG  =    0.0;   TEEND  =   0.0 temperature during run
   SMASS  =  -3.00    Nose mass-parameter (am)
   estimated Nose-frequenzy (Omega)   =  0.10E-29 period in steps =****** mass=  -0.463E-27a.u.
   SCALEE = 1.0000    scale energy and forces
   NPACO  =    256;   APACO  = 16.0  distance and # of slots for P.C.
   PSTRESS=    0.0 pullay stress

  Mass of Ions in am
   POMASS =  54.94208.98
  Ionic Valenz
   ZVAL   =   7.00  5.00
  Atomic Wigner-Seitz radii
   RWIGS  =  -1.00 -1.00
  virtual crystal weights 
   VCA    =   1.00  1.00
   NELECT =      24.0000    total number of electrons
   NUPDOWN=      -1.0000    fix difference up-down

 DOS related values:
   EMIN   =  10.00;   EMAX   =-10.00  energy-range for DOS
   EFERMI =   0.00
   ISMEAR =     1;   SIGMA  =   0.10  broadening in eV -4-tet -1-fermi 0-gaus

 Electronic relaxation 2 (details)
   IALGO  =     38    algorithm
   LDIAG  =      T    sub-space diagonalisation (order eigenvalues)
   LSUBROT=      F    optimize rotation matrix (better conditioning)
   TURBO    =      0    0=normal 1=particle mesh
   IRESTART =      0    0=no restart 2=restart with 2 vectors
   NREBOOT  =      0    no. of reboots
   NMIN     =      0    reboot dimension
   EREF     =   0.00    reference energy to select bands
   IMIX   =      4    mixing-type and parameters
     AMIX     =   0.40;   BMIX     =  1.00
     AMIX_MAG =   1.60;   BMIX_MAG =  1.00
     AMIN     =   0.10
     WC   =   100.;   INIMIX=   1;  MIXPRE=   1;  MAXMIX= -45

 Intra band minimization:
   WEIMIN = 0.0000     energy-eigenvalue tresh-hold
   EBREAK =  0.16E-07  absolut break condition
   DEPER  =   0.30     relativ break condition  

   TIME   =   0.40     timestep for ELM

  volume/ion in A,a.u.               =      32.23       217.50
  Fermi-wavevector in a.u.,A,eV,Ry     =   0.934775  1.766469 11.888837  0.873805
  Thomas-Fermi vector in A             =   2.061615
 
 Write flags
   LWAVE        =      F    write WAVECAR
   LDOWNSAMPLE  =      F    k-point downsampling of WAVECAR
   LCHARG       =      F    write CHGCAR
   LVTOT        =      F    write LOCPOT, total local potential
   LVHAR        =      F    write LOCPOT, Hartree potential only
   LELF         =      F    write electronic localiz. function (ELF)
   LORBIT       =     11    0 simple, 1 ext, 2 COOP (PROOUT), +10 PAW based schemes


 Dipole corrections
   LMONO  =      F    monopole corrections only (constant potential shift)
   LDIPOL =      F    correct potential (dipole corrections)
   IDIPOL =      0    1-x, 2-y, 3-z, 4-all directions 
   EPSILON=  1.0000000 bulk dielectric constant

 Exchange correlation treatment:
   GGA     =    --    GGA type
   LEXCH   =     8    internal setting for exchange type
   VOSKOWN=      0    Vosko Wilk Nusair interpolation
   LHFCALC =     F    Hartree Fock is set to
   LHFONE  =     F    Hartree Fock one center treatment
   AEXX    =    0.0000 exact exchange contribution

 Linear response parameters
   LEPSILON=     F    determine dielectric tensor
   LRPA    =     F    only Hartree local field effects (RPA)
   LNABLA  =     F    use nabla operator in PAW spheres
   LVEL    =     F    velocity operator in full k-point grid
   LINTERFAST=   F  fast interpolation
   KINTER  =     0    interpolate to denser k-point grid
   CSHIFT  =0.1000    complex shift for real part using Kramers Kronig
   OMEGAMAX=  -1.0    maximum frequency
   DEG_THRESHOLD= 0.2000000E-02 threshold for treating states as degnerate
   RTIME   =   -0.100 relaxation time in fs
  (WPLASMAI=    0.000 imaginary part of plasma frequency in eV, 0.658/RTIME)
   DFIELD  = 0.0000000 0.0000000 0.0000000 field for delta impulse in time
 
 Orbital magnetization related:
   ORBITALMAG=     F  switch on orbital magnetization
   LCHIMAG   =     F  perturbation theory with respect to B field
   DQ        =  0.001000  dq finite difference perturbation B field
   LLRAUG    =     F  two centre corrections for induced B field



--------------------------------------------------------------------------------------------------------


 Static calculation
 charge density and potential will be updated during run
 spin polarized calculation
 Variant of blocked Davidson
 Davidson routine will perform the subspace rotation
 perform sub-space diagonalisation
    after iterative eigenvector-optimisation
 modified Broyden-mixing scheme, WC =      100.0
 initial mixing is a Kerker type mixing with AMIX =  0.4000 and BMIX =      1.0000
 Hartree-type preconditioning will be used
 using additional bands            4
 reciprocal scheme for non local part
 use partial core corrections
 calculate Harris-corrections to forces 
   (improved forces if not selfconsistent)
 use gradient corrections 
 use of overlap-Matrix (Vanderbilt PP)
 Methfessel and Paxton  Order N= 1 SIGMA  =   0.10


--------------------------------------------------------------------------------------------------------


  energy-cutoff  :      500.00
  volume of cell :      128.92
      direct lattice vectors                 reciprocal lattice vectors
     4.500557900  0.000000000  0.000000000     0.222194675  0.000000003  0.000000002
    -0.000000100  5.196796700  3.674690100     0.000000000  0.128284155  0.090710596
     0.000000000 -2.598398300  3.674690100     0.000000000 -0.128284155  0.181421195

  length of vectors
     4.500557900  6.364750056  4.500557861     0.222194675  0.157115361  0.222194677


 
 k-points in units of 2pi/SCALE and weight: read from INCAR                         
   0.00000000  0.00000000  0.00000000       0.056
   0.07406489  0.00000000  0.00000000       0.111
   0.00000000  0.06414208  0.04535530       0.056
   0.07406489  0.06414208  0.04535530       0.111
   0.00000000 -0.04276138  0.06047373       0.111
   0.07406489 -0.04276138  0.06047373       0.111
  -0.07406489 -0.04276139  0.06047373       0.111
   0.00000000  0.02138069  0.10582903       0.111
   0.07406489  0.02138069  0.10582903       0.111
  -0.07406489  0.02138069  0.10582903       0.111
 
 k-points in reciprocal lattice and weights: read from INCAR                         
   0.00000000  0.00000000  0.00000000       0.056
   0.33333333 -0.00000000  0.00000000       0.111
   0.00000000  0.50000000  0.00000000       0.056
   0.33333333  0.50000000 -0.00000000       0.111
   0.00000000 -0.00000000  0.33333333       0.111
   0.33333333 -0.00000000  0.33333333       0.111
  -0.33333333  0.00000000  0.33333333       0.111
   0.00000000  0.50000000  0.33333333       0.111
   0.33333333  0.50000000  0.33333333       0.111
  -0.33333333  0.50000000  0.33333333       0.111
 
 position of ions in fractional coordinates (direct lattice) 
   0.50000001  0.75000002  0.00000001
   0.00000001  0.25000002  0.50000001
   0.00000000  0.00000000  0.00000000
   0.50000000  0.50000000  0.50000000
 
 position of ions in cartesian coordinates  (Angst):
   2.25027890  3.89759760  2.75601770
   0.00000000  0.00000010  2.75601770
   0.00000000  0.00000000  0.00000000
   2.25027890  1.29919920  3.67469010
 


--------------------------------------------------------------------------------------------------------


 k-point  1 :   0.0000 0.0000 0.0000  plane waves:    3299
 k-point  2 :   0.3333-0.0000 0.0000  plane waves:    3276
 k-point  3 :   0.0000 0.5000 0.0000  plane waves:    3272
 k-point  4 :   0.3333 0.5000-0.0000  plane waves:    3274
 k-point  5 :   0.0000-0.0000 0.3333  plane waves:    3276
 k-point  6 :   0.3333-0.0000 0.3333  plane waves:    3280
 k-point  7 :  -0.3333 0.0000 0.3333  plane waves:    3280
 k-point  8 :   0.0000 0.5000 0.3333  plane waves:    3274
 k-point  9 :   0.3333 0.5000 0.3333  plane waves:    3258
 k-point 10 :  -0.3333 0.5000 0.3333  plane waves:    3258

 maximum and minimum number of plane-waves per node :       424      393

 maximum number of plane-waves:      3299
 maximum index in each direction: 
   IXMAX=    8   IYMAX=   11   IZMAX=    8
   IXMIN=   -8   IYMIN=  -12   IZMIN=   -8


 parallel 3D FFT for wavefunctions:
    minimum data exchange during FFTs selected (reduces bandwidth)
 parallel 3D FFT for charge:
    minimum data exchange during FFTs selected (reduces bandwidth)


 total amount of memory used by VASP MPI-rank0    41614. kBytes
=======================================================================

   base      :      30000. kBytes
   nonl-proj :       1207. kBytes
   fftplans  :       2399. kBytes
   grid      :       5786. kBytes
   one-center:         31. kBytes
   wavefun   :       2191. kBytes
 
     INWAV:  cpu time    0.0000: real time    0.0001
 Broyden mixing: mesh for mixing (old mesh)
   NGX = 17   NGY = 23   NGZ = 17
  (NGX  = 72   NGY  = 96   NGZ  = 72)
  gives a total of   6647 points

 initial charge density was supplied:
 charge density of overlapping atoms calculated
 number of electron      24.0000000 magnetization       0.0000000
 keeping initial charge density in first step


--------------------------------------------------------------------------------------------------------


 Maximum index for augmentation-charges         5614 (set IRDMAX)


--------------------------------------------------------------------------------------------------------


 First call to EWALD:  gamma=   0.351
 Maximum number of real-space cells 3x 2x 3
 Maximum number of reciprocal cells 3x 3x 3

    FEWALD:  cpu time    0.0013: real time    0.0013


--------------------------------------- Iteration      1(   1)  ---------------------------------------


    POTLOK:  cpu time    0.0812: real time    0.0817
    SETDIJ:  cpu time    0.0109: real time    0.0110
     EDDAV:  cpu time    0.3208: real time    0.3397
       DOS:  cpu time    0.0011: real time    0.0011
    --------------------------------------------
      LOOP:  cpu time    0.4140: real time    0.4334

 eigenvalue-minimisations  :   640
 total energy-change (2. order) : 0.1457934E+03  (-0.8309196E+03)
 number of electron      24.0000000 magnetization       0.0000000
 augmentation part       24.0000000 magnetization       0.0000000

 Free energy of the ion-electron system (eV)
  ---------------------------------------------------
  alpha Z        PSCENC =        33.83180205
  Ewald energy   TEWEN  =      -894.59859831
  -Hartree energ DENC   =      -322.43543490
  -exchange      EXHF   =         0.00000000
  -V(xc)+E(xc)   XCENC  =      -242.97605608
  PAW double counting   =      1260.04502693     -996.49419418
  entropy T*S    EENTRO =        -0.00131701
  eigenvalues    EBANDS =       173.29229983
  atomic energy  EATOM  =      1135.12988305
  Solvation  Ediel_sol  =         0.00000000
  ---------------------------------------------------
  free energy    TOTEN  =       145.79341138 eV

  energy without entropy =      145.79472839  energy(sigma->0) =      145.79385038


--------------------------------------------------------------------------------------------------------




--------------------------------------- Iteration      1(   2)  ---------------------------------------


     EDDAV:  cpu time    0.3401: real time    0.3478
       DOS:  cpu time    0.0013: real time    0.0013
    --------------------------------------------
      LOOP:  cpu time    0.3413: real time    0.3491

 eigenvalue-minimisations  :   640
 total energy-change (2. order) :-0.1526735E+03  (-0.1488911E+03)
 number of electron      24.0000000 magnetization       0.0000000
 augmentation part       24.0000000 magnetization       0.0000000

 Free energy of the ion-electron system (eV)
  ---------------------------------------------------
  alpha Z        PSCENC =        33.83180205
  Ewald energy   TEWEN  =      -894.59859831
  -Hartree energ DENC   =      -322.43543490
  -exchange      EXHF   =         0.00000000
  -V(xc)+E(xc)   XCENC  =      -242.97605608
  PAW double counting   =      1260.04502693     -996.49419418
  entropy T*S    EENTRO =         0.00051433
  eigenvalues    EBANDS =        20.61701815
  atomic energy  EATOM  =      1135.12988305
  Solvation  Ediel_sol  =         0.00000000
  ---------------------------------------------------
  free energy    TOTEN  =        -6.88003896 eV

  energy without entropy =       -6.88055329  energy(sigma->0) =       -6.88021040


--------------------------------------------------------------------------------------------------------




--------------------------------------- Iteration      1(   3)  ---------------------------------------


     EDDAV:  cpu time    0.4711: real time    0.4732
       DOS:  cpu time    0.0012: real time    0.0012
    --------------------------------------------
      LOOP:  cpu time    0.4724: real time    0.4744

 eigenvalue-minimisations  :  1088
 total energy-change (2. order) :-0.1737632E+02  (-0.1700566E+02)
 number of electron      24.0000000 magnetization       0.0000000
 augmentation part       24.0000000 magnetization       0.0000000

 Free energy of the ion-electron system (eV)
  ---------------------------------------------------
  alpha Z        PSCENC =        33.83180205
  Ewald energy   TEWEN  =      -894.59859831
  -Hartree energ DENC   =      -322.43543490
  -exchange      EXHF   =         0.00000000
  -V(xc)+E(xc)   XCENC  =      -242.97605608
  PAW double counting   =      1260.04502693     -996.49419418
  entropy T*S    EENTRO =         0.00256467
  eigenvalues    EBANDS =         3.23864911
  atomic energy  EATOM  =      1135.12988305
  Solvation  Ediel_sol  =         0.00000000
  ---------------------------------------------------
  free energy    TOTEN  =       -24.25635765 eV

  energy without entropy =      -24.25892232  energy(sigma->0) =      -24.25721254


--------------------------------------------------------------------------------------------------------




--------------------------------------- Iteration      1(   4)  ---------------------------------------


     EDDAV:  cpu time    0.3955: real time    0.3968
       DOS:  cpu time    0.0014: real time    0.0014
    --------------------------------------------
      LOOP:  cpu time    0.3969: real time    0.3982

 eigenvalue-minimisations  :   904
 total energy-change (2. order) :-0.6642870E+00  (-0.6597952E+00)
 number of electron      24.0000000 magnetization       0.0000000
 augmentation part       24.0000000 magnetization       0.0000000

 Free energy of the ion-electron system (eV)
  ---------------------------------------------------
  alpha Z        PSCENC =        33.83180205
  Ewald energy   TEWEN  =      -894.59859831
  -Hartree energ DENC   =      -322.43543490
  -exchange      EXHF   =         0.00000000
  -V(xc)+E(xc)   XCENC  =      -242.97605608
  PAW double counting   =      1260.04502693     -996.49419418
  entropy T*S    EENTRO =         0.00158805
  eigenvalues    EBANDS =         2.57533872
  atomic energy  EATOM  =      1135.12988305
  Solvation  Ediel_sol  =         0.00000000
  ---------------------------------------------------
  free energy    TOTEN  =       -24.92064467 eV

  energy without entropy =      -24.92223272  energy(sigma->0) =      -24.92117402


--------------------------------------------------------------------------------------------------------




--------------------------------------- Iteration      1(   5)  ---------------------------------------


     EDDAV:  cpu time    0.4444: real time    0.4460
       DOS:  cpu time    0.0014: real time    0.0014
    CHARGE:  cpu time    0.0468: real time    0.0469
    MIXING:  cpu time    0.0014: real time    0.0014
    --------------------------------------------
      LOOP:  cpu time    0.4940: real time    0.4957

 eigenvalue-minimisations  :  1064
 total energy-change (2. order) :-0.2743262E-01  (-0.2739607E-01)
 number of electron      24.0000009 magnetization      -0.0000893
 augmentation part        1.8997555 magnetization       0.0000592

 Broyden mixing:
  rms(total) = 0.13408E+01    rms(broyden)= 0.13408E+01
  rms(prec ) = 0.23539E+01
  weight for this iteration     100.00

 Free energy of the ion-electron system (eV)
  ---------------------------------------------------
  alpha Z        PSCENC =        33.83180205
  Ewald energy   TEWEN  =      -894.59859831
  -Hartree energ DENC   =      -322.43543490
  -exchange      EXHF   =         0.00000000
  -V(xc)+E(xc)   XCENC  =      -242.97605608
  PAW double counting   =      1260.04502693     -996.49419418
  entropy T*S    EENTRO =         0.00146262
  eigenvalues    EBANDS =         2.54803152
  atomic energy  EATOM  =      1135.12988305
  Solvation  Ediel_sol  =         0.00000000
  ---------------------------------------------------
  free energy    TOTEN  =       -24.94807729 eV

  energy without entropy =      -24.94953992  energy(sigma->0) =      -24.94856483


--------------------------------------------------------------------------------------------------------




--------------------------------------- Iteration      1(   6)  ---------------------------------------


    POTLOK:  cpu time    0.0694: real time    0.0697
    SETDIJ:  cpu time    0.0091: real time    0.0091
     EDDAV:  cpu time    0.4672: real time    0.4686
       DOS:  cpu time    0.0014: real time    0.0014
    CHARGE:  cpu time    0.0434: real time    0.0435
    MIXING:  cpu time    0.0015: real time    0.0015
    --------------------------------------------
      LOOP:  cpu time    0.5920: real time    0.5939

 eigenvalue-minimisations  :  1168
 total energy-change (2. order) :-0.3469923E+01  (-0.7871453E+01)
 number of electron      24.0000015 magnetization      -0.0068781
 augmentation part        6.5361066 magnetization       0.0123910

 Broyden mixing:
  rms(total) = 0.31202E+01    rms(broyden)= 0.31201E+01
  rms(prec ) = 0.45015E+01
  weight for this iteration     100.00

 eigenvalues of (default mixing * dielectric matrix)
  average eigenvalue GAMMA=   0.2123
  0.2123

 Free energy of the ion-electron system (eV)
  ---------------------------------------------------
  alpha Z        PSCENC =        33.83180205
  Ewald energy   TEWEN  =      -894.59859831
  -Hartree energ DENC   =      -280.06302410
  -exchange      EXHF   =         0.00000000
  -V(xc)+E(xc)   XCENC  =      -242.25423588
  PAW double counting   =      1265.03573592     -998.53460918
  entropy T*S    EENTRO =        -0.00235518
  eigenvalues    EBANDS =       -46.96259885
  atomic energy  EATOM  =      1135.12988305
  Solvation  Ediel_sol  =         0.00000000
  ---------------------------------------------------
  free energy    TOTEN  =       -28.41800047 eV

  energy without entropy =      -28.41564529  energy(sigma->0) =      -28.41721541


--------------------------------------------------------------------------------------------------------




--------------------------------------- Iteration      1(   7)  ---------------------------------------


    POTLOK:  cpu time    0.0652: real time    0.0655
    SETDIJ:  cpu time    0.0089: real time    0.0089
     EDDAV:  cpu time    0.4459: real time    0.4471
       DOS:  cpu time    0.0013: real time    0.0013
    CHARGE:  cpu time    0.0436: real time    0.0437
    MIXING:  cpu time    0.0015: real time    0.0015
    --------------------------------------------
      LOOP:  cpu time    0.5663: real time    0.5680

 eigenvalue-minimisations  :  1120
 total energy-change (2. order) : 0.5742404E+01  (-0.4859302E+01)
 number of electron      24.0000011 magnetization       0.0025911
 augmentation part        3.6143626 magnetization      -0.0044826

 Broyden mixing:
  rms(total) = 0.54292E+00    rms(broyden)= 0.54278E+00
  rms(prec ) = 0.56702E+00
  weight for this iteration     100.00

 eigenvalues of (default mixing * dielectric matrix)
  average eigenvalue GAMMA=   0.5331
  0.7705  0.2958

 Free energy of the ion-electron system (eV)
  ---------------------------------------------------
  alpha Z        PSCENC =        33.83180205
  Ewald energy   TEWEN  =      -894.59859831
  -Hartree energ DENC   =      -303.75717953
  -exchange      EXHF   =         0.00000000
  -V(xc)+E(xc)   XCENC  =      -242.60511105
  PAW double counting   =      1343.99420553    -1080.67294127
  entropy T*S    EENTRO =        -0.00041498
  eigenvalues    EBANDS =       -13.99724183
  atomic energy  EATOM  =      1135.12988305
  Solvation  Ediel_sol  =         0.00000000
  ---------------------------------------------------
  free energy    TOTEN  =       -22.67559632 eV

  energy without entropy =      -22.67518134  energy(sigma->0) =      -22.67545800


--------------------------------------------------------------------------------------------------------




--------------------------------------- Iteration      1(   8)  ---------------------------------------


    POTLOK:  cpu time    0.0699: real time    0.0702
    SETDIJ:  cpu time    0.0094: real time    0.0094
     EDDAV:  cpu time    0.4282: real time    0.4294
       DOS:  cpu time    0.0013: real time    0.0013
    CHARGE:  cpu time    0.0443: real time    0.0444
    MIXING:  cpu time    0.0015: real time    0.0015
    --------------------------------------------
      LOOP:  cpu time    0.5547: real time    0.5563

 eigenvalue-minimisations  :  1048
 total energy-change (2. order) :-0.2283773E+00  (-0.1636768E+00)
 number of electron      24.0000011 magnetization      -0.0015303
 augmentation part        3.3880638 magnetization      -0.0012321

 Broyden mixing:
  rms(total) = 0.27065E+00    rms(broyden)= 0.27061E+00
  rms(prec ) = 0.34850E+00
  weight for this iteration     100.00

 eigenvalues of (default mixing * dielectric matrix)
  average eigenvalue GAMMA=   0.9768
  2.0039  0.3318  0.5946

 Free energy of the ion-electron system (eV)
  ---------------------------------------------------
  alpha Z        PSCENC =        33.83180205
  Ewald energy   TEWEN  =      -894.59859831
  -Hartree energ DENC   =      -304.80453504
  -exchange      EXHF   =         0.00000000
  -V(xc)+E(xc)   XCENC  =      -241.30256481
  PAW double counting   =      1380.70371209    -1118.62103043
  entropy T*S    EENTRO =         0.00170039
  eigenvalues    EBANDS =       -13.24434262
  atomic energy  EATOM  =      1135.12988305
  Solvation  Ediel_sol  =         0.00000000
  ---------------------------------------------------
  free energy    TOTEN  =       -22.90397363 eV

  energy without entropy =      -22.90567402  energy(sigma->0) =      -22.90454042


--------------------------------------------------------------------------------------------------------




--------------------------------------- Iteration      1(   9)  ---------------------------------------


    POTLOK:  cpu time    0.0683: real time    0.0688
    SETDIJ:  cpu time    0.0093: real time    0.0093
     EDDAV:  cpu time    0.4616: real time    0.4628
       DOS:  cpu time    0.0015: real time    0.0015
    CHARGE:  cpu time    0.0464: real time    0.0465
    MIXING:  cpu time    0.0017: real time    0.0017
    --------------------------------------------
      LOOP:  cpu time    0.5888: real time    0.5906

 eigenvalue-minimisations  :  1128
 total energy-change (2. order) : 0.9990984E-02  (-0.4043343E-01)
 number of electron      24.0000011 magnetization       0.0078726
 augmentation part        3.4626554 magnetization      -0.0010771

 Broyden mixing:
  rms(total) = 0.15236E+00    rms(broyden)= 0.15235E+00
  rms(prec ) = 0.17640E+00
  weight for this iteration     100.00

 eigenvalues of (default mixing * dielectric matrix)
  average eigenvalue GAMMA=   0.8720
  1.9615  0.3313  0.5976  0.5976

 Free energy of the ion-electron system (eV)
  ---------------------------------------------------
  alpha Z        PSCENC =        33.83180205
  Ewald energy   TEWEN  =      -894.59859831
  -Hartree energ DENC   =      -302.34913394
  -exchange      EXHF   =         0.00000000
  -V(xc)+E(xc)   XCENC  =      -239.79433788
  PAW double counting   =      1449.51198305    -1188.90435906
  entropy T*S    EENTRO =        -0.00123355
  eigenvalues    EBANDS =       -15.71998805
  atomic energy  EATOM  =      1135.12988305
  Solvation  Ediel_sol  =         0.00000000
  ---------------------------------------------------
  free energy    TOTEN  =       -22.89398264 eV

  energy without entropy =      -22.89274910  energy(sigma->0) =      -22.89357146


--------------------------------------------------------------------------------------------------------




--------------------------------------- Iteration      1(  10)  ---------------------------------------


    POTLOK:  cpu time    0.0760: real time    0.0765
    SETDIJ:  cpu time    0.0102: real time    0.0103
     EDDAV:  cpu time    0.4550: real time    0.4564
       DOS:  cpu time    0.0014: real time    0.0014
    CHARGE:  cpu time    0.0460: real time    0.0461
    MIXING:  cpu time    0.0018: real time    0.0018
    --------------------------------------------
      LOOP:  cpu time    0.5904: real time    0.5925

 eigenvalue-minimisations  :  1032
 total energy-change (2. order) :-0.2133963E-01  (-0.8238220E-02)
 number of electron      24.0000011 magnetization      -0.0033420
 augmentation part        3.5056868 magnetization       0.0027456

 Broyden mixing:
  rms(total) = 0.10016E+00    rms(broyden)= 0.10016E+00
  rms(prec ) = 0.10953E+00
  weight for this iteration     100.00

 eigenvalues of (default mixing * dielectric matrix)
  average eigenvalue GAMMA=   0.8452
  1.9814  0.3292  0.6103  0.6525  0.6525

 Free energy of the ion-electron system (eV)
  ---------------------------------------------------
  alpha Z        PSCENC =        33.83180205
  Ewald energy   TEWEN  =      -894.59859831
  -Hartree energ DENC   =      -301.90369886
  -exchange      EXHF   =         0.00000000
  -V(xc)+E(xc)   XCENC  =      -239.95431895
  PAW double counting   =      1457.03673079    -1196.57250471
  entropy T*S    EENTRO =         0.00027334
  eigenvalues    EBANDS =       -15.88489068
  atomic energy  EATOM  =      1135.12988305
  Solvation  Ediel_sol  =         0.00000000
  ---------------------------------------------------
  free energy    TOTEN  =       -22.91532228 eV

  energy without entropy =      -22.91559562  energy(sigma->0) =      -22.91541339


--------------------------------------------------------------------------------------------------------




--------------------------------------- Iteration      1(  11)  ---------------------------------------


    POTLOK:  cpu time    0.0721: real time    0.0724
    SETDIJ:  cpu time    0.0100: real time    0.0100
     EDDAV:  cpu time    0.4640: real time    0.4654
       DOS:  cpu time    0.0015: real time    0.0015
    CHARGE:  cpu time    0.0473: real time    0.0475
    MIXING:  cpu time    0.0019: real time    0.0019
    --------------------------------------------
      LOOP:  cpu time    0.5967: real time    0.5986

 eigenvalue-minimisations  :  1064
 total energy-change (2. order) :-0.7622896E-02  (-0.2985947E-02)
 number of electron      24.0000011 magnetization       0.0016759
 augmentation part        3.5175852 magnetization      -0.0051892

 Broyden mixing:
  rms(total) = 0.68912E-01    rms(broyden)= 0.68910E-01
  rms(prec ) = 0.80350E-01
  weight for this iteration     100.00

 eigenvalues of (default mixing * dielectric matrix)
  average eigenvalue GAMMA=   0.9203
  2.2000  1.1491  0.8354  0.6838  0.3267  0.3267

 Free energy of the ion-electron system (eV)
  ---------------------------------------------------
  alpha Z        PSCENC =        33.83180205
  Ewald energy   TEWEN  =      -894.59859831
  -Hartree energ DENC   =      -301.76543504
  -exchange      EXHF   =         0.00000000
  -V(xc)+E(xc)   XCENC  =      -240.09125584
  PAW double counting   =      1460.05333553    -1199.65752719
  entropy T*S    EENTRO =         0.00097273
  eigenvalues    EBANDS =       -15.82612217
  atomic energy  EATOM  =      1135.12988305
  Solvation  Ediel_sol  =         0.00000000
  ---------------------------------------------------
  free energy    TOTEN  =       -22.92294517 eV

  energy without entropy =      -22.92391791  energy(sigma->0) =      -22.92326942


--------------------------------------------------------------------------------------------------------




--------------------------------------- Iteration      1(  12)  ---------------------------------------


    POTLOK:  cpu time    0.0683: real time    0.0685
    SETDIJ:  cpu time    0.0094: real time    0.0094
     EDDAV:  cpu time    0.3949: real time    0.3962
       DOS:  cpu time    0.0014: real time    0.0014
    CHARGE:  cpu time    0.0460: real time    0.0461
    MIXING:  cpu time    0.0019: real time    0.0019
    --------------------------------------------
      LOOP:  cpu time    0.5218: real time    0.5236

 eigenvalue-minimisations  :   912
 total energy-change (2. order) :-0.2373546E-02  (-0.1536806E-02)
 number of electron      24.0000011 magnetization       0.0011979
 augmentation part        3.5161298 magnetization       0.0007458

 Broyden mixing:
  rms(total) = 0.12230E-01    rms(broyden)= 0.12227E-01
  rms(prec ) = 0.14190E-01
  weight for this iteration     100.00

 eigenvalues of (default mixing * dielectric matrix)
  average eigenvalue GAMMA=   0.9388
  2.3271  1.1205  1.1205  0.6718  0.6718  0.3311  0.3285

 Free energy of the ion-electron system (eV)
  ---------------------------------------------------
  alpha Z        PSCENC =        33.83180205
  Ewald energy   TEWEN  =      -894.59859831
  -Hartree energ DENC   =      -301.73964830
  -exchange      EXHF   =         0.00000000
  -V(xc)+E(xc)   XCENC  =      -240.25506919
  PAW double counting   =      1463.28892615    -1202.98544950
  entropy T*S    EENTRO =         0.00128808
  eigenvalues    EBANDS =       -15.59845275
  atomic energy  EATOM  =      1135.12988305
  Solvation  Ediel_sol  =         0.00000000
  ---------------------------------------------------
  free energy    TOTEN  =       -22.92531872 eV

  energy without entropy =      -22.92660680  energy(sigma->0) =      -22.92574808


--------------------------------------------------------------------------------------------------------




--------------------------------------- Iteration      1(  13)  ---------------------------------------


    POTLOK:  cpu time    0.0719: real time    0.0724
    SETDIJ:  cpu time    0.0095: real time    0.0096
     EDDAV:  cpu time    0.4619: real time    0.4634
       DOS:  cpu time    0.0016: real time    0.0016
    CHARGE:  cpu time    0.0482: real time    0.0484
    MIXING:  cpu time    0.0024: real time    0.0024
    --------------------------------------------
      LOOP:  cpu time    0.5954: real time    0.5977

 eigenvalue-minimisations  :  1040
 total energy-change (2. order) :-0.1910188E-03  (-0.1208726E-03)
 number of electron      24.0000011 magnetization      -0.0004893
 augmentation part        3.5139814 magnetization       0.0009168

 Broyden mixing:
  rms(total) = 0.62634E-02    rms(broyden)= 0.62626E-02
  rms(prec ) = 0.84521E-02
  weight for this iteration     100.00

 eigenvalues of (default mixing * dielectric matrix)
  average eigenvalue GAMMA=   0.9778
  2.2555  1.8152  0.8959  0.8959  0.6484  0.6484  0.3333  0.3298

 Free energy of the ion-electron system (eV)
  ---------------------------------------------------
  alpha Z        PSCENC =        33.83180205
  Ewald energy   TEWEN  =      -894.59859831
  -Hartree energ DENC   =      -301.76457397
  -exchange      EXHF   =         0.00000000
  -V(xc)+E(xc)   XCENC  =      -240.26975944
  PAW double counting   =      1464.76011159    -1204.50225287
  entropy T*S    EENTRO =         0.00131829
  eigenvalues    EBANDS =       -15.51344012
  atomic energy  EATOM  =      1135.12988305
  Solvation  Ediel_sol  =         0.00000000
  ---------------------------------------------------
  free energy    TOTEN  =       -22.92550974 eV

  energy without entropy =      -22.92682802  energy(sigma->0) =      -22.92594917


--------------------------------------------------------------------------------------------------------




--------------------------------------- Iteration      1(  14)  ---------------------------------------


    POTLOK:  cpu time    0.0798: real time    0.0802
    SETDIJ:  cpu time    0.0112: real time    0.0112
     EDDAV:  cpu time    0.4529: real time    0.4544
       DOS:  cpu time    0.0014: real time    0.0014
    CHARGE:  cpu time    0.0445: real time    0.0447
    MIXING:  cpu time    0.0020: real time    0.0020
    --------------------------------------------
      LOOP:  cpu time    0.5918: real time    0.5939

 eigenvalue-minimisations  :  1056
 total energy-change (2. order) :-0.3067654E-05  (-0.2397067E-04)
 number of electron      24.0000011 magnetization      -0.0005300
 augmentation part        3.5137480 magnetization      -0.0005839

 Broyden mixing:
  rms(total) = 0.46303E-02    rms(broyden)= 0.46301E-02
  rms(prec ) = 0.52636E-02
  weight for this iteration     100.00

 eigenvalues of (default mixing * dielectric matrix)
  average eigenvalue GAMMA=   0.9934
  2.1335  2.1335  1.0370  1.0370  0.3300  0.3351  0.6768  0.6768  0.5808

 Free energy of the ion-electron system (eV)
  ---------------------------------------------------
  alpha Z        PSCENC =        33.83180205
  Ewald energy   TEWEN  =      -894.59859831
  -Hartree energ DENC   =      -301.79645810
  -exchange      EXHF   =         0.00000000
  -V(xc)+E(xc)   XCENC  =      -240.29492036
  PAW double counting   =      1464.99631993    -1204.74404466
  entropy T*S    EENTRO =         0.00133845
  eigenvalues    EBANDS =       -15.45083486
  atomic energy  EATOM  =      1135.12988305
  Solvation  Ediel_sol  =         0.00000000
  ---------------------------------------------------
  free energy    TOTEN  =       -22.92551280 eV

  energy without entropy =      -22.92685125  energy(sigma->0) =      -22.92595895


--------------------------------------------------------------------------------------------------------




--------------------------------------- Iteration      1(  15)  ---------------------------------------


    POTLOK:  cpu time    0.0693: real time    0.0696
    SETDIJ:  cpu time    0.0091: real time    0.0091
     EDDAV:  cpu time    0.3522: real time    0.3533
       DOS:  cpu time    0.0015: real time    0.0015
    CHARGE:  cpu time    0.0462: real time    0.0463
    MIXING:  cpu time    0.0023: real time    0.0023
    --------------------------------------------
      LOOP:  cpu time    0.4806: real time    0.4822

 eigenvalue-minimisations  :   784
 total energy-change (2. order) :-0.1439537E-04  (-0.3767050E-05)
 number of electron      24.0000011 magnetization      -0.0003389
 augmentation part        3.5146201 magnetization      -0.0002887

 Broyden mixing:
  rms(total) = 0.19103E-02    rms(broyden)= 0.19103E-02
  rms(prec ) = 0.22519E-02
  weight for this iteration     100.00

 eigenvalues of (default mixing * dielectric matrix)
  average eigenvalue GAMMA=   1.0389
  2.3130  2.3130  1.2111  1.0806  0.3300  0.3350  0.7391  0.7391  0.7167  0.6115

 Free energy of the ion-electron system (eV)
  ---------------------------------------------------
  alpha Z        PSCENC =        33.83180205
  Ewald energy   TEWEN  =      -894.59859831
  -Hartree energ DENC   =      -301.80782342
  -exchange      EXHF   =         0.00000000
  -V(xc)+E(xc)   XCENC  =      -240.28821154
  PAW double counting   =      1465.03196327    -1204.77859689
  entropy T*S    EENTRO =         0.00133283
  eigenvalues    EBANDS =       -15.44727824
  atomic energy  EATOM  =      1135.12988305
  Solvation  Ediel_sol  =         0.00000000
  ---------------------------------------------------
  free energy    TOTEN  =       -22.92552720 eV

  energy without entropy =      -22.92686003  energy(sigma->0) =      -22.92597148


--------------------------------------------------------------------------------------------------------




--------------------------------------- Iteration      1(  16)  ---------------------------------------


    POTLOK:  cpu time    0.0718: real time    0.0721
    SETDIJ:  cpu time    0.0096: real time    0.0096
     EDDAV:  cpu time    0.4253: real time    0.4266
       DOS:  cpu time    0.0014: real time    0.0014
    CHARGE:  cpu time    0.0470: real time    0.0472
    MIXING:  cpu time    0.0024: real time    0.0024
    --------------------------------------------
      LOOP:  cpu time    0.5576: real time    0.5593

 eigenvalue-minimisations  :   976
 total energy-change (2. order) :-0.3893480E-05  (-0.1310421E-05)
 number of electron      24.0000011 magnetization      -0.0002953
 augmentation part        3.5150768 magnetization       0.0000037

 Broyden mixing:
  rms(total) = 0.68966E-03    rms(broyden)= 0.68962E-03
  rms(prec ) = 0.80615E-03
  weight for this iteration     100.00

 eigenvalues of (default mixing * dielectric matrix)
  average eigenvalue GAMMA=   1.0554
  2.3765  2.3765  1.5373  1.0967  0.3300  0.3350  0.8218  0.8218  0.6625  0.6254
  0.6254

 Free energy of the ion-electron system (eV)
  ---------------------------------------------------
  alpha Z        PSCENC =        33.83180205
  Ewald energy   TEWEN  =      -894.59859831
  -Hartree energ DENC   =      -301.81221514
  -exchange      EXHF   =         0.00000000
  -V(xc)+E(xc)   XCENC  =      -240.28329592
  PAW double counting   =      1465.08166222    -1204.82760364
  entropy T*S    EENTRO =         0.00132782
  eigenvalues    EBANDS =       -15.44849324
  atomic energy  EATOM  =      1135.12988305
  Solvation  Ediel_sol  =         0.00000000
  ---------------------------------------------------
  free energy    TOTEN  =       -22.92553109 eV

  energy without entropy =      -22.92685891  energy(sigma->0) =      -22.92597370


--------------------------------------------------------------------------------------------------------




--------------------------------------- Iteration      1(  17)  ---------------------------------------


    POTLOK:  cpu time    0.0783: real time    0.0786
    SETDIJ:  cpu time    0.0109: real time    0.0109
     EDDAV:  cpu time    0.2787: real time    0.2795
       DOS:  cpu time    0.0015: real time    0.0015
    --------------------------------------------
      LOOP:  cpu time    0.3693: real time    0.3705

 eigenvalue-minimisations  :   552
 total energy-change (2. order) :-0.8840132E-06  (-0.1250322E-06)
 number of electron      24.0000011 magnetization      -0.0002953
 augmentation part        3.5150768 magnetization       0.0000037

 Free energy of the ion-electron system (eV)
  ---------------------------------------------------
  alpha Z        PSCENC =        33.83180205
  Ewald energy   TEWEN  =      -894.59859831
  -Hartree energ DENC   =      -301.81290726
  -exchange      EXHF   =         0.00000000
  -V(xc)+E(xc)   XCENC  =      -240.28034991
  PAW double counting   =      1465.12695864    -1204.87360302
  entropy T*S    EENTRO =         0.00132610
  eigenvalues    EBANDS =       -15.45004332
  atomic energy  EATOM  =      1135.12988305
  Solvation  Ediel_sol  =         0.00000000
  ---------------------------------------------------
  free energy    TOTEN  =       -22.92553198 eV

  energy without entropy =      -22.92685808  energy(sigma->0) =      -22.92597401


--------------------------------------------------------------------------------------------------------




 average (electrostatic) potential at core
  the test charge radii are     1.0210  1.4024
  (the norm of the test charge is              1.0000)
       1 -46.9955       2 -46.9955       3 -63.3795       4 -63.3795
 
 
 
 E-fermi :   2.5764     XC(G=0):  -8.7866     alpha+bet : -8.1043


 spin component 1

 k-point     1 :       0.0000    0.0000    0.0000
  band No.  band energies     occupation 
      1      -8.1093      1.00000
      2      -7.1518      1.00000
      3      -0.7976      1.00000
      4      -0.0029      1.00000
      5      -0.0029      1.00000
      6       0.1436      1.00000
      7       0.3869      1.00000
      8       0.6617      1.00000
      9       1.7508      1.00000
     10       1.7508      1.00000
     11       2.5768      0.49663
     12       3.1146     -0.00000
     13       3.1146     -0.00000
     14       3.8501     -0.00000
     15       4.1392     -0.00000
     16       5.1343     -0.00000

 k-point     2 :       0.3333   -0.0000    0.0000
  band No.  band energies     occupation 
      1      -7.7281      1.00000
      2      -7.2125      1.00000
      3      -0.3298      1.00000
      4      -0.1493      1.00000
      5       0.0155      1.00000
      6       0.0409      1.00000
      7       0.2391      1.00000
      8       0.3415      1.00000
      9       0.9243      1.00000
     10       1.6920      1.00000
     11       2.1345      1.00000
     12       2.4530      1.03544
     13       3.1069     -0.00000
     14       4.0274     -0.00000
     15       4.2799     -0.00000
     16       4.4269     -0.00000

 k-point     3 :       0.0000    0.5000    0.0000
  band No.  band energies     occupation 
      1      -7.6986      1.00000
      2      -7.6512      1.00000
      3      -0.3761      1.00000
      4      -0.1579      1.00000
      5      -0.0319      1.00000
      6      -0.0319      1.00000
      7       0.3870      1.00000
      8       0.8581      1.00000
      9       1.7585      1.00000
     10       1.7585      1.00000
     11       2.2222      1.00000
     12       3.5895     -0.00000
     13       3.5895     -0.00000
     14       4.0955     -0.00000
     15       4.1388     -0.00000
     16       4.4297     -0.00000

 k-point     4 :       0.3333    0.5000   -0.0000
  band No.  band energies     occupation 
      1      -7.4845      1.00000
      2      -7.4567      1.00000
      3      -0.6301      1.00000
      4      -0.4258      1.00000
      5       0.0177      1.00000
      6       0.0438      1.00000
      7       0.2378      1.00000
      8       0.4996      1.00000
      9       0.5903      1.00000
     10       2.1313      1.00000
     11       2.3798      1.00891
     12       2.9425     -0.00000
     13       3.3291     -0.00000
     14       3.8226     -0.00000
     15       4.5613     -0.00000
     16       4.7126     -0.00000

 k-point     5 :       0.0000   -0.0000    0.3333
  band No.  band energies     occupation 
      1      -7.7281      1.00000
      2      -7.2125      1.00000
      3      -0.3298      1.00000
      4      -0.1493      1.00000
      5       0.0155      1.00000
      6       0.0409      1.00000
      7       0.2391      1.00000
      8       0.3415      1.00000
      9       0.9243      1.00000
     10       1.6920      1.00000
     11       2.1345      1.00000
     12       2.4530      1.03544
     13       3.1069     -0.00000
     14       4.0274     -0.00000
     15       4.2798     -0.00000
     16       4.4477     -0.00000

 k-point     6 :       0.3333   -0.0000    0.3333
  band No.  band energies     occupation 
      1      -7.4263      1.00000
      2      -7.1469      1.00000
      3      -0.5955      1.00000
      4      -0.4769      1.00000
      5       0.1910      1.00000
      6       0.2406      1.00000
      7       0.3758      1.00000
      8       0.4366      1.00000
      9       1.0789      1.00000
     10       1.5521      1.00000
     11       1.7402      1.00000
     12       2.1842      1.00000
     13       2.4421      1.03364
     14       3.7349     -0.00000
     15       4.0626     -0.00000
     16       4.0954     -0.00000

 k-point     7 :      -0.3333    0.0000    0.3333
  band No.  band energies     occupation 
      1      -7.4263      1.00000
      2      -7.1469      1.00000
      3      -0.5955      1.00000
      4      -0.4769      1.00000
      5       0.1910      1.00000
      6       0.2406      1.00000
      7       0.3758      1.00000
      8       0.4366      1.00000
      9       1.0789      1.00000
     10       1.5521      1.00000
     11       1.7402      1.00000
     12       2.1842      1.00000
     13       2.4421      1.03364
     14       3.7349     -0.00000
     15       4.0626     -0.00000
     16       4.0954     -0.00000

 k-point     8 :       0.0000    0.5000    0.3333
  band No.  band energies     occupation 
      1      -7.4845      1.00000
      2      -7.4567      1.00000
      3      -0.6301      1.00000
      4      -0.4258      1.00000
      5       0.0177      1.00000
      6       0.0438      1.00000
      7       0.2378      1.00000
      8       0.4996      1.00000
      9       0.5903      1.00000
     10       2.1313      1.00000
     11       2.3798      1.00890
     12       2.9425     -0.00000
     13       3.3291     -0.00000
     14       3.8226     -0.00000
     15       4.5613     -0.00000
     16       4.7126     -0.00000

 k-point     9 :       0.3333    0.5000    0.3333
  band No.  band energies     occupation 
      1      -7.2871      1.00000
      2      -7.2742      1.00000
      3      -0.4525      1.00000
      4      -0.1433      1.00000
      5      -0.0277      1.00000
      6       0.0362      1.00000
      7       0.2698      1.00000
      8       0.5431      1.00000
      9       0.5747      1.00000
     10       1.3435      1.00000
     11       1.4445      1.00000
     12       2.4576      1.03524
     13       2.5750      0.51226
     14       3.8404     -0.00000
     15       3.8647     -0.00000
     16       4.1994     -0.00000

 k-point    10 :      -0.3333    0.5000    0.3333
  band No.  band energies     occupation 
      1      -7.2871      1.00000
      2      -7.2742      1.00000
      3      -0.4525      1.00000
      4      -0.1433      1.00000
      5      -0.0277      1.00000
      6       0.0362      1.00000
      7       0.2698      1.00000
      8       0.5431      1.00000
      9       0.5747      1.00000
     10       1.3435      1.00000
     11       1.4445      1.00000
     12       2.4576      1.03524
     13       2.5750      0.51225
     14       3.8404     -0.00000
     15       3.8647     -0.00000
     16       4.1994     -0.00000

 spin component 2

 k-point     1 :       0.0000    0.0000    0.0000
  band No.  band energies     occupation 
      1      -8.1094      1.00000
      2      -7.1518      1.00000
      3      -0.7976      1.00000
      4      -0.0029      1.00000
      5      -0.0029      1.00000
      6       0.1435      1.00000
      7       0.3870      1.00000
      8       0.6617      1.00000
      9       1.7507      1.00000
     10       1.7507      1.00000
     11       2.5767      0.49746
     12       3.1145     -0.00000
     13       3.1145     -0.00000
     14       3.8501     -0.00000
     15       4.1393     -0.00000
     16       5.1343     -0.00000

 k-point     2 :       0.3333   -0.0000    0.0000
  band No.  band energies     occupation 
      1      -7.7281      1.00000
      2      -7.2125      1.00000
      3      -0.3298      1.00000
      4      -0.1493      1.00000
      5       0.0155      1.00000
      6       0.0409      1.00000
      7       0.2391      1.00000
      8       0.3414      1.00000
      9       0.9243      1.00000
     10       1.6920      1.00000
     11       2.1345      1.00000
     12       2.4529      1.03544
     13       3.1069     -0.00000
     14       4.0274     -0.00000
     15       4.2798     -0.00000
     16       4.4427     -0.00000

 k-point     3 :       0.0000    0.5000    0.0000
  band No.  band energies     occupation 
      1      -7.6986      1.00000
      2      -7.6512      1.00000
      3      -0.3762      1.00000
      4      -0.1579      1.00000
      5      -0.0319      1.00000
      6      -0.0319      1.00000
      7       0.3871      1.00000
      8       0.8581      1.00000
      9       1.7585      1.00000
     10       1.7585      1.00000
     11       2.2221      1.00000
     12       3.5894     -0.00000
     13       3.5894     -0.00000
     14       4.0954     -0.00000
     15       4.1388     -0.00000
     16       4.4296     -0.00000

 k-point     4 :       0.3333    0.5000   -0.0000
  band No.  band energies     occupation 
      1      -7.4845      1.00000
      2      -7.4567      1.00000
      3      -0.6301      1.00000
      4      -0.4259      1.00000
      5       0.0177      1.00000
      6       0.0438      1.00000
      7       0.2378      1.00000
      8       0.4995      1.00000
      9       0.5903      1.00000
     10       2.1312      1.00000
     11       2.3797      1.00889
     12       2.9424     -0.00000
     13       3.3291     -0.00000
     14       3.8226     -0.00000
     15       4.5613     -0.00000
     16       4.7126     -0.00000

 k-point     5 :       0.0000   -0.0000    0.3333
  band No.  band energies     occupation 
      1      -7.7281      1.00000
      2      -7.2125      1.00000
      3      -0.3298      1.00000
      4      -0.1493      1.00000
      5       0.0155      1.00000
      6       0.0409      1.00000
      7       0.2391      1.00000
      8       0.3414      1.00000
      9       0.9243      1.00000
     10       1.6920      1.00000
     11       2.1345      1.00000
     12       2.4529      1.03544
     13       3.1069     -0.00000
     14       4.0274     -0.00000
     15       4.2798     -0.00000
     16       4.4400     -0.00000

 k-point     6 :       0.3333   -0.0000    0.3333
  band No.  band energies     occupation 
      1      -7.4264      1.00000
      2      -7.1469      1.00000
      3      -0.5956      1.00000
      4      -0.4769      1.00000
      5       0.1910      1.00000
      6       0.2406      1.00000
      7       0.3758      1.00000
      8       0.4366      1.00000
      9       1.0789      1.00000
     10       1.5520      1.00000
     11       1.7402      1.00000
     12       2.1842      1.00000
     13       2.4420      1.03362
     14       3.7348     -0.00000
     15       4.0625     -0.00000
     16       4.0954     -0.00000

 k-point     7 :      -0.3333    0.0000    0.3333
  band No.  band energies     occupation 
      1      -7.4264      1.00000
      2      -7.1469      1.00000
      3      -0.5956      1.00000
      4      -0.4769      1.00000
      5       0.1910      1.00000
      6       0.2406      1.00000
      7       0.3758      1.00000
      8       0.4366      1.00000
      9       1.0789      1.00000
     10       1.5520      1.00000
     11       1.7402      1.00000
     12       2.1842      1.00000
     13       2.4420      1.03362
     14       3.7348     -0.00000
     15       4.0625     -0.00000
     16       4.0954     -0.00000

 k-point     8 :       0.0000    0.5000    0.3333
  band No.  band energies     occupation 
      1      -7.4845      1.00000
      2      -7.4567      1.00000
      3      -0.6301      1.00000
      4      -0.4259      1.00000
      5       0.0177      1.00000
      6       0.0438      1.00000
      7       0.2378      1.00000
      8       0.4995      1.00000
      9       0.5903      1.00000
     10       2.1312      1.00000
     11       2.3797      1.00889
     12       2.9424     -0.00000
     13       3.3291     -0.00000
     14       3.8226     -0.00000
     15       4.5613     -0.00000
     16       4.7126     -0.00000

 k-point     9 :       0.3333    0.5000    0.3333
  band No.  band energies     occupation 
      1      -7.2871      1.00000
      2      -7.2742      1.00000
      3      -0.4525      1.00000
      4      -0.1433      1.00000
      5      -0.0278      1.00000
      6       0.0362      1.00000
      7       0.2698      1.00000
      8       0.5431      1.00000
      9       0.5747      1.00000
     10       1.3435      1.00000
     11       1.4445      1.00000
     12       2.4576      1.03524
     13       2.5749      0.51281
     14       3.8404     -0.00000
     15       3.8647     -0.00000
     16       4.1994     -0.00000

 k-point    10 :      -0.3333    0.5000    0.3333
  band No.  band energies     occupation 
      1      -7.2871      1.00000
      2      -7.2742      1.00000
      3      -0.4525      1.00000
      4      -0.1433      1.00000
      5      -0.0278      1.00000
      6       0.0362      1.00000
      7       0.2698      1.00000
      8       0.5431      1.00000
      9       0.5747      1.00000
     10       1.3435      1.00000
     11       1.4445      1.00000
     12       2.4576      1.03524
     13       2.5749      0.51281
     14       3.8404     -0.00000
     15       3.8647     -0.00000
     16       4.1994     -0.00000


--------------------------------------------------------------------------------------------------------


 soft charge-density along one line, spin component           1
         0         1         2         3         4         5         6         7         8         9
 total charge-density along one line
 
 soft charge-density along one line, spin component           2
         0         1         2         3         4         5         6         7         8         9
 total charge-density along one line
 
 pseudopotential strength for first ion, spin component:           1
 -8.387  -0.000   0.000   0.035  -0.000  -8.904  -0.000   0.000
 -0.000  -8.405  -0.014   0.000   0.054  -0.000  -8.922  -0.014
  0.000  -0.014  -8.346  -0.000  -0.019   0.000  -0.014  -8.863
  0.035   0.000  -0.000  -8.411  -0.000   0.034   0.000  -0.000
 -0.000   0.054  -0.019  -0.000  -8.367  -0.000   0.053  -0.019
 -8.904  -0.000   0.000   0.034  -0.000  -9.396  -0.000   0.000
 -0.000  -8.922  -0.014   0.000   0.053  -0.000  -9.414  -0.013
  0.000  -0.014  -8.863  -0.000  -0.019   0.000  -0.013  -9.356
  0.034   0.000  -0.000  -8.928  -0.000   0.034   0.000  -0.000
 -0.000   0.053  -0.019  -0.000  -8.884  -0.000   0.053  -0.019
  0.000   0.004   0.000   0.000  -0.003   0.000   0.004   0.000
  0.000   0.008   0.000   0.000  -0.005   0.000   0.008   0.000
  0.000   0.007  -0.000   0.000   0.009   0.000   0.006  -0.000
  0.000   0.000  -0.011   0.000  -0.000   0.000   0.000  -0.011
  0.009   0.000  -0.000   0.007   0.000   0.009   0.000  -0.000
  0.000   0.008  -0.000   0.000   0.011   0.000   0.007  -0.000
  0.000   0.000  -0.013   0.000   0.000   0.000   0.000  -0.013
  0.011   0.000  -0.000   0.008   0.000   0.010   0.000  -0.000
 pseudopotential strength for first ion, spin component:           2
 -6.150  -0.000  -0.000  -0.086   0.000  -6.709  -0.000  -0.000
 -0.000  -6.132   0.000  -0.000  -0.057  -0.000  -6.691   0.001
 -0.000   0.000  -6.211   0.000   0.001  -0.000   0.001  -6.769
 -0.086  -0.000   0.000  -6.089  -0.000  -0.085  -0.000   0.000
  0.000  -0.057   0.001  -0.000  -6.172   0.000  -0.056   0.001
 -6.709  -0.000  -0.000  -0.085   0.000  -7.243  -0.000  -0.000
 -0.000  -6.691   0.001  -0.000  -0.056  -0.000  -7.225   0.001
 -0.000   0.001  -6.769   0.000   0.001  -0.000   0.001  -7.303
 -0.085  -0.000   0.000  -6.649  -0.000  -0.084  -0.000   0.000
  0.000  -0.056   0.001  -0.000  -6.730   0.000  -0.056   0.001
  0.000   0.004   0.000   0.000  -0.003   0.000   0.004   0.000
  0.000   0.007   0.000   0.000  -0.005   0.000   0.007   0.000
 -0.000  -0.003  -0.000  -0.000  -0.005  -0.000  -0.003  -0.000
 -0.000   0.000   0.006  -0.000   0.000   0.000   0.000   0.006
 -0.005  -0.000   0.000  -0.003  -0.000  -0.005   0.000   0.000
 -0.000  -0.005  -0.000  -0.000  -0.007  -0.000  -0.005  -0.000
 -0.000   0.000   0.009  -0.000   0.000  -0.000   0.000   0.009
 -0.007  -0.000   0.000  -0.005  -0.000  -0.007  -0.000   0.000
 total augmentation occupancy for first ion, spin component:           1
  2.635   0.000  -0.000  -0.103   0.000  -1.213  -0.000   0.000  -0.026  -0.000  -0.000   0.000  -0.000  -0.000  -0.115  -0.000
  0.000   2.722  -0.079  -0.000   0.024  -0.000  -1.206   0.053   0.000  -0.110  -0.021   0.007  -0.099  -0.013  -0.000   0.004
 -0.000  -0.079   2.659   0.000  -0.112   0.000   0.053  -1.297  -0.000   0.075  -0.000  -0.000   0.022   0.157  -0.000  -0.000
 -0.103  -0.000   0.000   2.708  -0.000  -0.026   0.000  -0.000  -1.195   0.000  -0.000   0.000   0.000   0.000  -0.082   0.000
  0.000   0.024  -0.112  -0.000   2.739  -0.000  -0.110   0.075   0.000  -1.284   0.015  -0.005  -0.140  -0.018   0.000   0.006
 -1.213  -0.000   0.000  -0.026  -0.000   0.925   0.000  -0.000   0.191   0.000   0.000   0.000  -0.000   0.000   0.176   0.000
 -0.000  -1.206   0.053   0.000  -0.110   0.000   0.831  -0.047   0.000   0.243   0.016  -0.003   0.135   0.007   0.000  -0.006
  0.000   0.053  -1.297  -0.000   0.075  -0.000  -0.047   1.118  -0.000  -0.066  -0.000   0.000  -0.013  -0.224   0.000   0.000
 -0.026   0.000  -0.000  -1.195   0.000   0.191   0.000  -0.000   0.790  -0.000  -0.000  -0.000   0.000   0.000   0.124  -0.000
 -0.000  -0.110   0.075   0.000  -1.284   0.000   0.243  -0.066  -0.000   1.003  -0.011   0.002   0.191   0.010  -0.000  -0.008
 -0.000  -0.021  -0.000  -0.000   0.015   0.000   0.016  -0.000  -0.000  -0.011   1.579  -0.101   0.000  -0.000  -0.000   0.000
  0.000   0.007  -0.000   0.000  -0.005   0.000  -0.003   0.000  -0.000   0.002  -0.101   0.016  -0.000  -0.000   0.000   0.000
 -0.000  -0.099   0.022   0.000  -0.140  -0.000   0.135  -0.013   0.000   0.191   0.000  -0.000   0.118   0.003  -0.000  -0.005
 -0.000  -0.013   0.157   0.000  -0.018   0.000   0.007  -0.224   0.000   0.010  -0.000  -0.000   0.003   0.116  -0.000  -0.000
 -0.115  -0.000  -0.000  -0.082   0.000   0.176   0.000   0.000   0.124  -0.000  -0.000   0.000  -0.000  -0.000   0.114   0.000
 -0.000   0.004  -0.000   0.000   0.006   0.000  -0.006   0.000  -0.000  -0.008   0.000   0.000  -0.005  -0.000   0.000   0.000
  0.000   0.000  -0.007   0.000   0.000  -0.000  -0.000   0.010  -0.000  -0.000   0.000  -0.000  -0.000  -0.005  -0.000   0.000
  0.005  -0.000   0.000   0.004  -0.000  -0.008   0.000  -0.000  -0.006   0.000   0.000  -0.000   0.000   0.000  -0.005  -0.000
 total augmentation occupancy for first ion, spin component:           2
  2.402   0.000  -0.000  -0.213   0.000  -0.847  -0.000   0.000   0.139   0.000  -0.000   0.000   0.000  -0.000  -0.026  -0.000
  0.000   2.564  -0.078   0.000  -0.085  -0.000  -0.953   0.063   0.000   0.035  -0.001   0.005  -0.036  -0.012  -0.000  -0.000
 -0.000  -0.078   2.347   0.000  -0.111   0.000   0.063  -0.826  -0.000   0.089  -0.000   0.000   0.022   0.047  -0.000  -0.000
 -0.213   0.000   0.000   2.553   0.000   0.139  -0.000  -0.000  -0.946  -0.000  -0.000   0.000  -0.000   0.000  -0.018   0.000
  0.000  -0.085  -0.111   0.000   2.503  -0.000   0.035   0.089  -0.000  -0.928   0.001  -0.004  -0.051  -0.018  -0.000  -0.000
 -0.847  -0.000   0.000   0.139  -0.000   0.178   0.000  -0.000  -0.161   0.000   0.000  -0.000  -0.000   0.000  -0.023   0.000
 -0.000  -0.953   0.063  -0.000   0.035   0.000   0.262  -0.040  -0.000  -0.071  -0.005  -0.001  -0.001   0.011   0.000   0.001
  0.000   0.063  -0.826  -0.000   0.089  -0.000  -0.040   0.113   0.000  -0.056   0.000  -0.000  -0.019   0.015   0.000   0.000
  0.139   0.000  -0.000  -0.946  -0.000  -0.161  -0.000   0.000   0.292   0.000   0.000  -0.000   0.000  -0.000  -0.016  -0.000
  0.000   0.035   0.089  -0.000  -0.928   0.000  -0.071  -0.056   0.000   0.212   0.004   0.001  -0.002   0.015   0.000   0.001
 -0.000  -0.001  -0.000  -0.000   0.001   0.000  -0.005   0.000   0.000   0.004  -0.114   0.083  -0.000  -0.000   0.000   0.000
  0.000   0.005   0.000   0.000  -0.004  -0.000  -0.001  -0.000  -0.000   0.001   0.083  -0.008   0.000   0.000  -0.000   0.000
  0.000  -0.036   0.022  -0.000  -0.051  -0.000  -0.001  -0.019   0.000  -0.002  -0.000   0.000   0.012   0.003  -0.000   0.000
 -0.000  -0.012   0.047   0.000  -0.018   0.000   0.011   0.015  -0.000   0.015  -0.000   0.000   0.003   0.010   0.000  -0.000
 -0.026  -0.000  -0.000  -0.018  -0.000  -0.023   0.000   0.000  -0.016   0.000   0.000  -0.000  -0.000   0.000   0.007   0.000
 -0.000  -0.000  -0.000   0.000  -0.000   0.000   0.001   0.000  -0.000   0.001   0.000   0.000   0.000  -0.000   0.000  -0.000
  0.000   0.000   0.001   0.000   0.000  -0.000  -0.000  -0.002  -0.000  -0.000   0.000   0.000  -0.000   0.000  -0.000  -0.000
 -0.001  -0.000   0.000  -0.000  -0.000   0.001   0.000   0.000   0.001   0.000  -0.000   0.000   0.000  -0.000   0.000  -0.000


------------------------ aborting loop because EDIFF is reached ----------------------------------------


 


 total charge     
 
# of ion       s       p       d       tot
------------------------------------------
    1        0.304   0.198   4.966   5.468
    2        0.304   0.198   4.966   5.468
    3        1.678   2.229   0.064   3.971
    4        1.678   2.229   0.064   3.971
--------------------------------------------------
tot          3.964   4.853  10.060  18.877
 


 magnetization (x)
 
# of ion       s       p       d       tot
------------------------------------------
    1        0.040   0.019   3.702   3.761
    2       -0.040  -0.019  -3.702  -3.761
    3        0.000  -0.000  -0.000  -0.000
    4        0.000  -0.000  -0.000  -0.000
--------------------------------------------------
tot          0.000  -0.000  -0.000  -0.000
 
    CHARGE:  cpu time    0.0445: real time    0.0446
    FORLOC:  cpu time    0.0027: real time    0.0027
    FORNL :  cpu time    0.0926: real time    0.0928
    STRESS:  cpu time    0.1687: real time    0.1691
    FORCOR:  cpu time    0.0718: real time    0.0720
    FORHAR:  cpu time    0.0080: real time    0.0081
    MIXING:  cpu time    0.0022: real time    0.0022
    OFIELD:  cpu time    0.0000: real time    0.0000

  FORCE on cell =-STRESS in cart. coord.  units (eV):
  Direction    XX          YY          ZZ          XY          YZ          ZX
  --------------------------------------------------------------------------------------
  Alpha Z    33.83180    33.83180    33.83180
  Ewald    -298.19973  -298.19976  -298.19979     0.00001     0.00001     0.00001
  Hartree   100.81913   100.39673   100.60794     0.00001    -0.29867     0.00001
  E(xc)    -113.57467  -113.66383  -113.61926    -0.00000    -0.06304    -0.00000
  Local     -50.75075   -51.32688   -51.03881    -0.00004    -0.40743    -0.00004
  n-local   108.30544   109.81568   109.06057     0.00001     1.06789     0.00001
  augment     8.69638     7.80561     8.25098    -0.00000    -0.62986    -0.00001
  Kinetic   210.16836   211.31592   210.74213     0.00000     0.81148     0.00001
  Fock        0.00000     0.00000     0.00000     0.00000     0.00000     0.00000
  -------------------------------------------------------------------------------------
  Total      -0.70404    -0.02472    -0.36443    -0.00001     0.48037    -0.00001
  in kB      -8.74976    -0.30724    -4.52910    -0.00017     5.97003    -0.00011
  external pressure =       -4.53 kB  Pullay stress =        0.00 kB


 VOLUME and BASIS-vectors are now :
 -----------------------------------------------------------------------------
  energy-cutoff  :      500.00
  volume of cell :      128.92
      direct lattice vectors                 reciprocal lattice vectors
     4.500557900  0.000000000  0.000000000     0.222194675  0.000000003  0.000000002
    -0.000000100  5.196796700  3.674690100     0.000000000  0.128284155  0.090710596
     0.000000000 -2.598398300  3.674690100     0.000000000 -0.128284155  0.181421195

  length of vectors
     4.500557900  6.364750056  4.500557861     0.222194675  0.157115361  0.222194677


 FORCES acting on ions
    electron-ion (+dipol)            ewald-force                    non-local-force                 convergence-correction
 -----------------------------------------------------------------------------------------------
   0.260E-04 0.577E-04 -.933E-05   -.285E-05 -.253E-05 -.211E-05   -.576E-05 0.402E-04 0.109E-04   -.162E-04 -.932E-04 -.528E-05
   -.170E-04 -.206E-04 0.315E-04   -.285E-05 -.253E-05 -.211E-05   -.110E-05 -.229E-04 -.215E-04   0.228E-04 0.434E-04 -.142E-04
   -.347E-04 -.487E-03 -.355E-03   0.285E-05 0.253E-05 0.211E-05   0.166E-04 -.539E-04 -.349E-04   0.128E-04 0.467E-03 0.336E-03
   0.101E-04 0.472E-03 0.379E-03   0.285E-05 0.253E-05 0.211E-05   -.720E-05 0.640E-04 0.221E-04   -.565E-05 -.466E-03 -.345E-03
 -----------------------------------------------------------------------------------------------
   -.157E-04 0.222E-04 0.461E-04   0.809E-15 0.389E-16 -.725E-16   0.254E-05 0.273E-04 -.235E-04   0.138E-04 -.483E-04 -.289E-04
 
 
 POSITION                                       TOTAL-FORCE (eV/Angst)
 -----------------------------------------------------------------------------------
      2.25028      3.89760      2.75602         0.000001      0.000002     -0.000004
      0.00000      0.00000      2.75602         0.000002     -0.000003     -0.000005
      0.00000      0.00000      0.00000        -0.000003     -0.000072     -0.000051
      2.25028      1.29920      3.67469        -0.000000      0.000073      0.000060
 -----------------------------------------------------------------------------------
    total drift:                                0.000001      0.000001     -0.000006


--------------------------------------------------------------------------------------------------------



  FREE ENERGIE OF THE ION-ELECTRON SYSTEM (eV)
  ---------------------------------------------------
  free  energy   TOTEN  =       -22.92553198 eV

  energy  without entropy=      -22.92685808  energy(sigma->0) =      -22.92597401
 


--------------------------------------------------------------------------------------------------------


    POTLOK:  cpu time    0.0784: real time    0.0786


--------------------------------------------------------------------------------------------------------


     LOOP+:  cpu time    9.2081: real time    9.2632
    4ORBIT:  cpu time    0.0000: real time    0.0000
 


 total charge     
 
# of ion       s       p       d       tot
------------------------------------------
    1        0.304   0.198   4.966   5.468
    2        0.304   0.198   4.966   5.468
    3        1.678   2.229   0.064   3.971
    4        1.678   2.229   0.064   3.971
--------------------------------------------------
tot          3.964   4.853  10.060  18.877
 


 magnetization (x)
 
# of ion       s       p       d       tot
------------------------------------------
    1        0.040   0.019   3.702   3.761
    2       -0.040  -0.019  -3.702  -3.761
    3        0.000  -0.000  -0.000  -0.000
    4        0.000  -0.000  -0.000  -0.000
--------------------------------------------------
tot          0.000  -0.000  -0.000  -0.000
 

 total amount of memory used by VASP MPI-rank0    41614. kBytes
=======================================================================

   base      :      30000. kBytes
   nonl-proj :       1207. kBytes
   fftplans  :       2399. kBytes
   grid      :       5786. kBytes
   one-center:         31. kBytes
   wavefun   :       2191. kBytes
 
  
  
 General timing and accounting informations for this job:
 ========================================================
  
                  Total CPU time used (sec):        9.894
                            User time (sec):        9.819
                          System time (sec):        0.075
                         Elapsed time (sec):       10.131
  
                   Maximum memory used (kb):       69280.
                   Average memory used (kb):           0.
  
                          Minor page faults:        24478
                          Major page faults:            0
                 Voluntary context switches:          115
