=========================================
SLURM_JOB_ID = 29456374
SLURM_JOB_NODELIST = lnode55
SLURM_GPUS = 
SLURM_CPUS_ON_NODE = 8
SLURM_JOB_PARTITION = lenovo
SLURM_TASK_PID = 754674
CUDA_VISIBLE_DEVICES = 
==========================================
 running on    8 total cores
 distrk:  each k-point on    8 cores,    1 groups
 distr:  one band on    8 cores,    1 groups
 using from now: INCAR     
 vasp.5.4.4.18Apr17-6-g9f103f2a35 (build Apr 28 2018 00:24:27) complex          
  
 POSCAR found type information on POSCAR  Mn Bi
 POSCAR found :  2 types and       4 ions
 scaLAPACK will be used

 ----------------------------------------------------------------------------- 
|                                                                             |
|           W    W    AA    RRRRR   N    N  II  N    N   GGGG   !!!           |
|           W    W   A  A   R    R  NN   N  II  NN   N  G    G  !!!           |
|           W    W  A    A  R    R  N N  N  II  N N  N  G       !!!           |
|           W WW W  AAAAAA  RRRRR   N  N N  II  N  N N  G  GGG   !            |
|           WW  WW  A    A  R   R   N   NN  II  N   NN  G    G                |
|           W    W  A    A  R    R  N    N  II  N    N   GGGG   !!!           |
|                                                                             |
|      For optimal performance we recommend to set                            |
|        NCORE= 4 - approx SQRT( number of cores)                             |
|      NCORE specifies how many cores store one orbital (NPAR=cpu/NCORE).     |
|      This setting can  greatly improve the performance of VASP for DFT.     |
|      The default,   NCORE=1            might be grossly inefficient         |
|      on modern multi-core architectures or massively parallel machines.     |
|      Do your own testing !!!!                                               |
|      Unfortunately you need to use the default for GW and RPA calculations. |
|      (for HF NCORE is supported but not extensively tested yet)             |
|                                                                             |
 ----------------------------------------------------------------------------- 

 LDA part: xc-table for Pade appr. of Perdew
 POSCAR, INCAR and KPOINTS ok, starting setup
 FFT: planning ...
 WAVECAR not read
 entering main loop
       N       E                     dE             d eps       ncg     rms          rms(c)
DAV:   1     0.144579196805E+03    0.14458E+03   -0.83225E+03108032   0.125E+03
DAV:   2    -0.729988678858E+01   -0.15188E+03   -0.14814E+03108040   0.310E+02
DAV:   3    -0.243174861019E+02   -0.17018E+02   -0.16729E+02177944   0.976E+01
DAV:   4    -0.250253538377E+02   -0.70787E+00   -0.70324E+00166096   0.221E+01
DAV:   5    -0.250492508981E+02   -0.23897E-01   -0.23853E-01178368   0.391E+00    0.137E+01
DAV:   6    -0.290895665627E+02   -0.40403E+01   -0.83963E+01204680   0.142E+02    0.336E+01
DAV:   7    -0.226116334094E+02    0.64779E+01   -0.58977E+01189056   0.836E+01    0.573E+00
DAV:   8    -0.228860385459E+02   -0.27441E+00   -0.16513E+00168568   0.107E+01    0.288E+00
DAV:   9    -0.228662090928E+02    0.19829E-01   -0.55865E-01191072   0.122E+01    0.156E+00
DAV:  10    -0.228984980911E+02   -0.32289E-01   -0.98566E-02152512   0.239E+00    0.108E+00
DAV:  11    -0.229105774147E+02   -0.12079E-01   -0.41923E-02174176   0.229E+00    0.581E-01
DAV:  12    -0.229104603169E+02    0.11710E-03   -0.15192E-02185256   0.188E+00    0.151E-01
DAV:  13    -0.229105907088E+02   -0.13039E-03   -0.11920E-03141888   0.441E-01    0.608E-02
DAV:  14    -0.229106056175E+02   -0.14909E-04   -0.40319E-04189464   0.303E-01    0.525E-02
DAV:  15    -0.229106077714E+02   -0.21539E-05   -0.96797E-05161512   0.142E-01    0.178E-02
DAV:  16    -0.229106110167E+02   -0.32453E-05   -0.24414E-05180120   0.713E-02    0.431E-03
DAV:  17    -0.229106121007E+02   -0.10840E-05   -0.21676E-06 84848   0.125E-02    0.254E-03
DAV:  18    -0.229106121926E+02   -0.91937E-07   -0.70241E-07 81056   0.117E-02
   1 F= -.22910612E+02 E0= -.22910367E+02  d E =-.736484E-03  mag=     0.0000
