       N       E                     dE             d eps       ncg     rms          rms(c)
DAV:   1     0.267434752031E+03    0.26743E+03   -0.24157E+04149580   0.264E+03
DAV:   2    -0.819548852329E+01   -0.27563E+03   -0.26433E+03150876   0.486E+02
DAV:   3    -0.162010546567E+02   -0.80056E+01   -0.79884E+01161232   0.890E+01
DAV:   4    -0.162717256672E+02   -0.70671E-01   -0.70668E-01174648   0.799E+00
DAV:   5    -0.162730359420E+02   -0.13103E-02   -0.13103E-02161400   0.103E+00    0.249E+01
DAV:   6    -0.164619061121E+02   -0.18887E+00   -0.74533E+00150672   0.398E+01    0.686E+00
DAV:   7    -0.165140336163E+02   -0.52128E-01   -0.61692E-01151380   0.991E+00    0.433E+00
DAV:   8    -0.165241103787E+02   -0.10077E-01   -0.14783E-02169236   0.148E+00    0.137E+00
DAV:   9    -0.165157926305E+02    0.83177E-02   -0.51781E-03162744   0.885E-01    0.349E-01
DAV:  10    -0.165154392979E+02    0.35333E-03   -0.22125E-03153900   0.613E-01    0.442E-02
DAV:  11    -0.165154841894E+02   -0.44892E-04   -0.55495E-05159708   0.707E-02    0.249E-02
DAV:  12    -0.165154819025E+02    0.22869E-05   -0.47520E-06172536   0.236E-02    0.100E-02
DAV:  13    -0.165154831210E+02   -0.12185E-05   -0.20216E-06156960   0.148E-02    0.143E-03
DAV:  14    -0.165154834228E+02   -0.30182E-06   -0.10021E-07147396   0.276E-03    0.575E-04
DAV:  15    -0.165154833882E+02    0.34611E-07   -0.74261E-09 79884   0.102E-03
   1 F= -.16515483E+02 E0= -.16515483E+02  d E =0.000000E+00  mag=     4.4318
