=========================================
SLURM_JOB_ID = 63455425
SLURM_JOB_NODELIST = lnode15
SLURM_GPUS = 
SLURM_CPUS_ON_NODE = 8
SLURM_JOB_PARTITION = lenovo
SLURM_TASK_PID = 436570
CUDA_VISIBLE_DEVICES = 
==========================================
 running on    8 total cores
 distrk:  each k-point on    8 cores,    1 groups
 distr:  one band on    4 cores,    2 groups
 using from now: INCAR     
 vasp.5.4.4.18Apr17-6-g9f103f2a35 (build Apr 28 2018 00:24:27) complex          
  
 POSCAR found type information on POSCAR  Co
 POSCAR found :  1 types and       2 ions
 scaLAPACK will be used

 ----------------------------------------------------------------------------- 
|                                                                             |
|  ADVICE TO THIS USER RUNNING 'VASP/VAMP'   (HEAR YOUR MASTER'S VOICE ...):  |
|                                                                             |
|      You have a (more or less) 'small supercell' and for smaller cells      |
|      it is recommended  to use the reciprocal-space projection scheme!      |
|      The real space optimization is not  efficient for small cells and it   |
|      is also less accurate ...                                              |
|      Therefore set LREAL=.FALSE. in the  INCAR file                         |
|                                                                             |
 ----------------------------------------------------------------------------- 

 LDA part: xc-table for Pade appr. of Perdew
 POSCAR, INCAR and KPOINTS ok, starting setup
 FFT: planning ...
 WAVECAR not read
 entering main loop
       N       E                     dE             d eps       ncg     rms          rms(c)
DAV:   1     0.877586926604E+02    0.87759E+02   -0.87454E+03  4296   0.180E+03
DAV:   2    -0.138980431844E+02   -0.10166E+03   -0.95036E+02  4256   0.282E+02
DAV:   3    -0.161970525360E+02   -0.22990E+01   -0.22244E+01  4838   0.619E+01
DAV:   4    -0.162283800954E+02   -0.31328E-01   -0.31337E-01  6058   0.563E+00
DAV:   5    -0.162286836657E+02   -0.30357E-03   -0.30447E-03  5132   0.518E-01    0.145E+01
DAV:   6    -0.142641732576E+02    0.19645E+01   -0.16529E+01  4496   0.838E+01    0.796E+00
DAV:   7    -0.139304458542E+02    0.33373E+00   -0.23006E+00  4628   0.299E+01    0.482E+00
DAV:   8    -0.140800185492E+02   -0.14957E+00   -0.15136E-01  5770   0.637E+00    0.217E+00
DAV:   9    -0.140371076267E+02    0.42911E-01   -0.34445E-02  6190   0.280E+00    0.237E+00
DAV:  10    -0.140268132546E+02    0.10294E-01   -0.96680E-04  6084   0.451E-01    0.266E+00
DAV:  11    -0.140715965451E+02   -0.44783E-01   -0.32579E-02  5218   0.303E+00    0.423E-01
DAV:  12    -0.140720406685E+02   -0.44412E-03   -0.10091E-03  6070   0.390E-01    0.149E-01
DAV:  13    -0.140718373206E+02    0.20335E-03   -0.15666E-04  5630   0.204E-01    0.866E-03
DAV:  14    -0.140718261811E+02    0.11139E-04   -0.61626E-06  4776   0.279E-02    0.857E-03
DAV:  15    -0.140718329291E+02   -0.67480E-05   -0.30459E-07  4744   0.706E-03    0.476E-03
DAV:  16    -0.140718421122E+02   -0.91831E-05   -0.20572E-07  3132   0.682E-03    0.504E-04
DAV:  17    -0.140718413147E+02    0.79748E-06   -0.12201E-08  2272   0.152E-03    0.327E-04
DAV:  18    -0.140718420954E+02   -0.78071E-06   -0.28826E-09  2242   0.768E-04    0.634E-05
DAV:  19    -0.140718420868E+02    0.86320E-08   -0.90902E-10  2176   0.295E-04
   1 F= -.14071842E+02 E0= -.14071842E+02  d E =0.000000E+00  mag=     3.1560
