=========================================
SLURM_JOB_ID = 63456904
SLURM_JOB_NODELIST = lnode52
SLURM_GPUS = 
SLURM_CPUS_ON_NODE = 8
SLURM_JOB_PARTITION = lenovo
SLURM_TASK_PID = 2657864
CUDA_VISIBLE_DEVICES = 
==========================================
 running on    8 total cores
 distrk:  each k-point on    8 cores,    1 groups
 distr:  one band on    4 cores,    2 groups
 using from now: INCAR     
 vasp.5.4.4.18Apr17-6-g9f103f2a35 (build Apr 28 2018 00:24:27) complex          
  
 POSCAR found type information on POSCAR  Eu O 
 POSCAR found :  2 types and       2 ions
 scaLAPACK will be used

 ----------------------------------------------------------------------------- 
|                                                                             |
|  ADVICE TO THIS USER RUNNING 'VASP/VAMP'   (HEAR YOUR MASTER'S VOICE ...):  |
|                                                                             |
|      You have a (more or less) 'small supercell' and for smaller cells      |
|      it is recommended  to use the reciprocal-space projection scheme!      |
|      The real space optimization is not  efficient for small cells and it   |
|      is also less accurate ...                                              |
|      Therefore set LREAL=.FALSE. in the  INCAR file                         |
|                                                                             |
 ----------------------------------------------------------------------------- 

 LDA part: xc-table for Pade appr. of Perdew
 POSCAR, INCAR and KPOINTS ok, starting setup
 FFT: planning ...
 WAVECAR not read
 entering main loop
       N       E                     dE             d eps       ncg     rms          rms(c)
DAV:   1     0.157680398582E+03    0.15768E+03   -0.11112E+04  8372   0.292E+03
DAV:   2    -0.282707862937E+01   -0.16051E+03   -0.13955E+03  7488   0.309E+02
DAV:   3    -0.196035169893E+02   -0.16776E+02   -0.16122E+02  7752   0.108E+02
DAV:   4    -0.204705226362E+02   -0.86701E+00   -0.84349E+00 10948   0.219E+01
DAV:   5    -0.204973584637E+02   -0.26836E-01   -0.26714E-01  9464   0.299E+00    0.185E+01
DAV:   6    -0.257315189431E+02   -0.52342E+01   -0.10091E+02 10272   0.109E+02    0.275E+01
DAV:   7    -0.209011556112E+02    0.48304E+01   -0.23926E+01  8680   0.832E+01    0.101E+01
DAV:   8    -0.209333780893E+02   -0.32222E-01   -0.13329E+00  9764   0.101E+01    0.486E+00
DAV:   9    -0.209198398653E+02    0.13538E-01   -0.16536E+00 10800   0.112E+01    0.267E+00
DAV:  10    -0.208627270589E+02    0.57113E-01   -0.21650E-01  9708   0.422E+00    0.988E-01
DAV:  11    -0.208585772833E+02    0.41498E-02   -0.14320E-02  9520   0.118E+00    0.817E-01
DAV:  12    -0.208582369461E+02    0.34034E-03   -0.25623E-02 10272   0.150E+00    0.357E-01
DAV:  13    -0.208585569670E+02   -0.32002E-03   -0.20517E-03  9816   0.292E-01    0.205E-01
DAV:  14    -0.208586622658E+02   -0.10530E-03   -0.15566E-03 10168   0.377E-01    0.834E-02
DAV:  15    -0.208585930377E+02    0.69228E-04   -0.20304E-04  9788   0.117E-01    0.430E-02
DAV:  16    -0.208586149218E+02   -0.21884E-04   -0.23159E-05 10212   0.408E-02    0.141E-02
DAV:  17    -0.208586161557E+02   -0.12339E-05   -0.28533E-06 11260   0.121E-02    0.551E-03
DAV:  18    -0.208586165287E+02   -0.37300E-06   -0.60755E-07  8384   0.565E-03    0.587E-03
DAV:  19    -0.208586147884E+02    0.17403E-05   -0.20207E-07  7264   0.504E-03    0.199E-03
DAV:  20    -0.208586160969E+02   -0.13085E-05   -0.98888E-08  4728   0.320E-03    0.514E-04
DAV:  21    -0.208586158231E+02    0.27383E-06   -0.40496E-08  3984   0.184E-03    0.265E-04
DAV:  22    -0.208586157145E+02    0.10862E-06   -0.15306E-08  3764   0.115E-03    0.326E-04
DAV:  23    -0.208586156628E+02    0.51691E-07   -0.62688E-09  3656   0.946E-04
   1 F= -.20858616E+02 E0= -.20858616E+02  d E =0.000000E+00  mag=     6.9930
