       N       E                     dE             d eps       ncg     rms          rms(c)
DAV:   1     0.137314529160E+04    0.13731E+04   -0.49810E+04 89752   0.193E+03
DAV:   2     0.113064837408E+03   -0.12601E+04   -0.11398E+04 88688   0.551E+02
DAV:   3    -0.787596678370E+02   -0.19182E+03   -0.18187E+03 93972   0.216E+02
DAV:   4    -0.868349046339E+02   -0.80752E+01   -0.80200E+01101052   0.455E+01
DAV:   5    -0.869134539088E+02   -0.78549E-01   -0.78483E-01 98696   0.501E+00    0.505E+01
DAV:   6    -0.611215205874E+02    0.25792E+02   -0.84563E+01115924   0.878E+01    0.551E+01
DAV:   7    -0.660184444562E+02   -0.48969E+01   -0.17369E+01 91212   0.232E+01    0.319E+01
DAV:   8    -0.656639602507E+02    0.35448E+00   -0.23557E+00110244   0.120E+01    0.202E+01
DAV:   9    -0.656015942725E+02    0.62366E-01   -0.13948E+00 96004   0.999E+00    0.876E+00
DAV:  10    -0.656672426963E+02   -0.65648E-01   -0.12577E-01103152   0.300E+00    0.193E+00
DAV:  11    -0.656765994872E+02   -0.93568E-02   -0.18154E-02 97952   0.764E-01    0.124E+00
DAV:  12    -0.656701432694E+02    0.64562E-02   -0.49595E-02 97048   0.182E+00    0.475E-01
DAV:  13    -0.656710464659E+02   -0.90320E-03   -0.56235E-03 98680   0.378E-01    0.218E-01
DAV:  14    -0.656708960782E+02    0.15039E-03   -0.17499E-03 96472   0.358E-01    0.115E-01
DAV:  15    -0.656709416524E+02   -0.45574E-04   -0.10809E-04 96376   0.648E-02    0.659E-02
DAV:  16    -0.656709358050E+02    0.58474E-05   -0.51716E-05103056   0.659E-02    0.248E-02
DAV:  17    -0.656709352464E+02    0.55856E-06   -0.75049E-06 94692   0.148E-02    0.844E-03
DAV:  18    -0.656709346816E+02    0.56479E-06   -0.20929E-06 97960   0.932E-03    0.377E-03
DAV:  19    -0.656709348599E+02   -0.17821E-06   -0.55549E-07 81968   0.662E-03    0.171E-03
DAV:  20    -0.656709348833E+02   -0.23454E-07   -0.39151E-08 53136   0.189E-03
   1 F= -.65670935E+02 E0= -.65670935E+02  d E =0.000000E+00  mag=    20.0000
