=========================================
SLURM_JOB_ID = 63457038
SLURM_JOB_NODELIST = lnode31
SLURM_GPUS = 
SLURM_CPUS_ON_NODE = 8
SLURM_JOB_PARTITION = lenovo
SLURM_TASK_PID = 2324038
CUDA_VISIBLE_DEVICES = 
==========================================
 running on    8 total cores
 distrk:  each k-point on    8 cores,    1 groups
 distr:  one band on    4 cores,    2 groups
 using from now: INCAR     
 vasp.5.4.4.18Apr17-6-g9f103f2a35 (build Apr 28 2018 00:24:27) complex          
  
 POSCAR found type information on POSCAR  Eu S 
 POSCAR found :  2 types and       2 ions
 scaLAPACK will be used

 ----------------------------------------------------------------------------- 
|                                                                             |
|  ADVICE TO THIS USER RUNNING 'VASP/VAMP'   (HEAR YOUR MASTER'S VOICE ...):  |
|                                                                             |
|      You have a (more or less) 'small supercell' and for smaller cells      |
|      it is recommended  to use the reciprocal-space projection scheme!      |
|      The real space optimization is not  efficient for small cells and it   |
|      is also less accurate ...                                              |
|      Therefore set LREAL=.FALSE. in the  INCAR file                         |
|                                                                             |
 ----------------------------------------------------------------------------- 

 LDA part: xc-table for Pade appr. of Perdew
 POSCAR, INCAR and KPOINTS ok, starting setup
 FFT: planning ...
 WAVECAR not read
 entering main loop
       N       E                     dE             d eps       ncg     rms          rms(c)
DAV:   1     0.146510179391E+03    0.14651E+03   -0.91920E+03  1884   0.220E+03
DAV:   2     0.125474271829E+01   -0.14526E+03   -0.12944E+03  1756   0.259E+02
DAV:   3    -0.151379136169E+02   -0.16393E+02   -0.15888E+02  1932   0.947E+01
DAV:   4    -0.159925588308E+02   -0.85465E+00   -0.84316E+00  2576   0.199E+01
DAV:   5    -0.160325157300E+02   -0.39957E-01   -0.39843E-01  2300   0.352E+00    0.132E+01
DAV:   6    -0.202060133889E+02   -0.41735E+01   -0.46457E+01  2328   0.677E+01    0.177E+01
DAV:   7    -0.190850876244E+02    0.11209E+01   -0.28702E+00  1956   0.387E+01    0.657E+00
DAV:   8    -0.187612853843E+02    0.32380E+00   -0.14354E+00  2716   0.142E+01    0.254E+00
DAV:   9    -0.188332529034E+02   -0.71968E-01   -0.13657E+00  2148   0.982E+00    0.334E+00
DAV:  10    -0.187489147718E+02    0.84338E-01   -0.81055E-01  2084   0.739E+00    0.105E+00
DAV:  11    -0.187611995709E+02   -0.12285E-01   -0.19009E-02  2580   0.972E-01    0.546E-01
DAV:  12    -0.187597077080E+02    0.14919E-02   -0.53028E-03  2484   0.693E-01    0.514E-01
DAV:  13    -0.187580023169E+02    0.17054E-02   -0.44357E-03  2396   0.556E-01    0.273E-01
DAV:  14    -0.187577194515E+02    0.28287E-03   -0.14635E-03  2636   0.314E-01    0.157E-01
DAV:  15    -0.187577886472E+02   -0.69196E-04   -0.20499E-03  2080   0.378E-01    0.102E-02
DAV:  16    -0.187577907164E+02   -0.20692E-05   -0.96536E-05  2464   0.486E-02    0.101E-02
DAV:  17    -0.187577902396E+02    0.47685E-06   -0.35518E-06  2464   0.882E-03    0.916E-03
DAV:  18    -0.187578002005E+02   -0.99610E-05   -0.14639E-06  2544   0.996E-03    0.117E-02
DAV:  19    -0.187577846100E+02    0.15590E-04   -0.28217E-06  2084   0.144E-02    0.496E-03
DAV:  20    -0.187577784667E+02    0.61433E-05   -0.69081E-07  1760   0.676E-03    0.230E-03
DAV:  21    -0.187577776161E+02    0.85059E-06   -0.57596E-08  1044   0.211E-03    0.176E-03
DAV:  22    -0.187577789518E+02   -0.13356E-05   -0.41904E-08   968   0.230E-03    0.108E-03
DAV:  23    -0.187577798865E+02   -0.93474E-06   -0.25318E-08   936   0.147E-03    0.360E-04
DAV:  24    -0.187577803265E+02   -0.44000E-06   -0.90561E-09   940   0.809E-04    0.101E-04
DAV:  25    -0.187577804055E+02   -0.78974E-07   -0.30751E-09   920   0.559E-04
   1 F= -.18757780E+02 E0= -.18757780E+02  d E =0.000000E+00  mag=     6.9956
