       N       E                     dE             d eps       ncg     rms          rms(c)
DAV:   1     0.778876618160E+03    0.77888E+03   -0.21525E+04 10120   0.220E+03
DAV:   2     0.166615220351E+03   -0.61226E+03   -0.47373E+03 10384   0.335E+02
DAV:   3    -0.611798332626E+01   -0.17273E+03   -0.16595E+03  9052   0.191E+02
DAV:   4    -0.274950798281E+02   -0.21377E+02   -0.20201E+02 12740   0.606E+01
DAV:   5    -0.295648073942E+02   -0.20697E+01   -0.20029E+01 15636   0.198E+01    0.224E+01
DAV:   6    -0.441853500540E+02   -0.14621E+02   -0.57033E+01 10680   0.701E+01    0.302E+01
DAV:   7    -0.426125864843E+02    0.15728E+01   -0.88280E+00 10996   0.184E+01    0.107E+01
DAV:   8    -0.410251475910E+02    0.15874E+01   -0.33200E+00 11780   0.139E+01    0.341E+00
DAV:   9    -0.410823057153E+02   -0.57158E-01   -0.16891E+00 11976   0.105E+01    0.391E+00
DAV:  10    -0.410557219721E+02    0.26584E-01   -0.31865E-01 13124   0.382E+00    0.127E+00
DAV:  11    -0.411206762052E+02   -0.64954E-01   -0.54339E-02 15016   0.117E+00    0.635E-01
DAV:  12    -0.411565985973E+02   -0.35922E-01   -0.38307E-02 11804   0.944E-01    0.576E-01
DAV:  13    -0.411576315627E+02   -0.10330E-02   -0.14741E-02 12348   0.724E-01    0.181E-01
DAV:  14    -0.411559753273E+02    0.16562E-02   -0.12287E-02 12868   0.348E-01    0.141E-01
DAV:  15    -0.411555646346E+02    0.41069E-03   -0.13234E-03 13936   0.158E-01    0.117E-01
DAV:  16    -0.411551698121E+02    0.39482E-03   -0.86172E-04 13652   0.203E-01    0.448E-02
DAV:  17    -0.411555611374E+02   -0.39133E-03   -0.18964E-04 13824   0.729E-02    0.911E-03
DAV:  18    -0.411556780794E+02   -0.11694E-03   -0.34039E-05 15052   0.265E-02    0.365E-03
DAV:  19    -0.411556569313E+02    0.21148E-04   -0.60876E-06 13352   0.803E-03    0.179E-03
DAV:  20    -0.411556688491E+02   -0.11918E-04   -0.11307E-06 10940   0.340E-03    0.114E-03
DAV:  21    -0.411556631365E+02    0.57126E-05   -0.10958E-07  7224   0.195E-03    0.924E-04
DAV:  22    -0.411556593001E+02    0.38364E-05   -0.39553E-08  4960   0.174E-03    0.328E-04
DAV:  23    -0.411556586989E+02    0.60119E-06   -0.17697E-08  4868   0.704E-04    0.247E-04
DAV:  24    -0.411556588105E+02   -0.11160E-06   -0.86570E-09  4776   0.818E-04    0.697E-05
DAV:  25    -0.411556584123E+02    0.39819E-06   -0.56712E-09  4748   0.439E-04    0.800E-05
DAV:  26    -0.411556581717E+02    0.24060E-06   -0.41948E-09  4716   0.494E-04    0.775E-05
DAV:  27    -0.411556581907E+02   -0.19059E-07   -0.26804E-09  4684   0.361E-04
   1 F= -.41155658E+02 E0= -.41155658E+02  d E =0.000000E+00  mag=    29.7449
