       N       E                     dE             d eps       ncg     rms          rms(c)
DAV:   1     0.763581629716E+03    0.76358E+03   -0.34576E+04  4368   0.162E+03
DAV:   2     0.292349258954E+02   -0.73435E+03   -0.69299E+03  3936   0.523E+02
DAV:   3    -0.114173905057E+02   -0.40652E+02   -0.39315E+02  4248   0.141E+02
DAV:   4    -0.120060856269E+02   -0.58870E+00   -0.58800E+00  4248   0.172E+01
DAV:   5    -0.120180229535E+02   -0.11937E-01   -0.11937E-01  4328   0.237E+00    0.547E+01
DAV:   6    -0.218690952839E+02   -0.98511E+01   -0.35137E+01  4216   0.706E+01    0.232E+01
DAV:   7    -0.188288265065E+02    0.30403E+01   -0.12335E+01  4160   0.404E+01    0.349E+00
DAV:   8    -0.187441848624E+02    0.84642E-01   -0.19047E-01  4360   0.491E+00    0.139E+00
DAV:   9    -0.187409389961E+02    0.32459E-02   -0.75851E-03  4248   0.525E-01    0.636E-01
DAV:  10    -0.187374126013E+02    0.35264E-02   -0.77267E-04  4736   0.259E-01    0.183E-01
DAV:  11    -0.187372418831E+02    0.17072E-03   -0.42613E-04  4144   0.170E-01    0.850E-02
DAV:  12    -0.187372585909E+02   -0.16708E-04   -0.34203E-05  4232   0.473E-02    0.496E-02
DAV:  13    -0.187372628427E+02   -0.42518E-05   -0.38415E-06  3832   0.186E-02    0.133E-02
DAV:  14    -0.187372629359E+02   -0.93132E-07   -0.76777E-07  2408   0.784E-03
   1 F= -.18737263E+02 E0= -.18667816E+02  d E =-.138893E+00  mag=     2.3992
