=========================================
SLURM_JOB_ID = 51752972
SLURM_JOB_NODELIST = lnode48
SLURM_GPUS = 
SLURM_CPUS_ON_NODE = 24
SLURM_JOB_PARTITION = lenovo
SLURM_TASK_PID = 812639
CUDA_VISIBLE_DEVICES = 
==========================================
 running on   24 total cores
 distrk:  each k-point on   24 cores,    1 groups
 distr:  one band on    4 cores,    6 groups
 using from now: INCAR     
 vasp.5.4.4.18Apr17-6-g9f103f2a35 (build Apr 28 2018 00:24:27) complex          
  
 POSCAR found type information on POSCAR  Fe
 POSCAR found :  1 types and       2 ions
 scaLAPACK will be used

 ----------------------------------------------------------------------------- 
|                                                                             |
|  ADVICE TO THIS USER RUNNING 'VASP/VAMP'   (HEAR YOUR MASTER'S VOICE ...):  |
|                                                                             |
|      You have a (more or less) 'small supercell' and for smaller cells      |
|      it is recommended  to use the reciprocal-space projection scheme!      |
|      The real space optimization is not  efficient for small cells and it   |
|      is also less accurate ...                                              |
|      Therefore set LREAL=.FALSE. in the  INCAR file                         |
|                                                                             |
 ----------------------------------------------------------------------------- 

 LDA part: xc-table for Pade appr. of Perdew
 POSCAR, INCAR and KPOINTS ok, starting setup
 FFT: planning ...
 WAVECAR not read
 entering main loop
       N       E                     dE             d eps       ncg     rms          rms(c)
DAV:   1     0.248063534119E+03    0.24806E+03   -0.21925E+04  3420   0.236E+03
DAV:   2    -0.897940113787E+01   -0.25704E+03   -0.24680E+03  3432   0.453E+02
DAV:   3    -0.162117322876E+02   -0.72323E+01   -0.72191E+01  3672   0.830E+01
DAV:   4    -0.162738789434E+02   -0.62147E-01   -0.62155E-01  3888   0.730E+00
DAV:   5    -0.162750269814E+02   -0.11480E-02   -0.11481E-02  3744   0.929E-01    0.250E+01
DAV:   6    -0.164591290606E+02   -0.18410E+00   -0.74928E+00  3444   0.398E+01    0.691E+00
DAV:   7    -0.165136719522E+02   -0.54543E-01   -0.61469E-01  3408   0.976E+00    0.431E+00
DAV:   8    -0.165233835813E+02   -0.97116E-02   -0.15139E-02  3708   0.148E+00    0.137E+00
DAV:   9    -0.165151005062E+02    0.82831E-02   -0.52459E-03  3648   0.887E-01    0.337E-01
DAV:  10    -0.165149021920E+02    0.19831E-03   -0.22406E-03  3432   0.614E-01    0.442E-02
DAV:  11    -0.165149621420E+02   -0.59950E-04   -0.49819E-05  3612   0.666E-02    0.242E-02
DAV:  12    -0.165149702729E+02   -0.81309E-05   -0.50274E-06  3840   0.229E-02    0.957E-03
DAV:  13    -0.165149635332E+02    0.67397E-05   -0.13004E-06  3516   0.113E-02    0.249E-03
DAV:  14    -0.165149619934E+02    0.15398E-05   -0.15404E-07  2724   0.328E-03    0.656E-04
DAV:  15    -0.165149620040E+02   -0.10575E-07   -0.11086E-08  1728   0.109E-03
   1 F= -.16514962E+02 E0= -.16514962E+02  d E =0.000000E+00  mag=     4.4054
