=========================================
SLURM_JOB_ID = 31800783
SLURM_JOB_NODELIST = lnode56
SLURM_GPUS = 
SLURM_CPUS_ON_NODE = 8
SLURM_JOB_PARTITION = lenovo
SLURM_TASK_PID = 1557287
CUDA_VISIBLE_DEVICES = 
==========================================
 running on    8 total cores
 distrk:  each k-point on    8 cores,    1 groups
 distr:  one band on    4 cores,    2 groups
 using from now: INCAR     
 vasp.5.4.4.18Apr17-6-g9f103f2a35 (build Apr 28 2018 00:24:27) complex          
  
 POSCAR found type information on POSCAR  Fe
 POSCAR found :  1 types and       6 ions
 scaLAPACK will be used
 LDA part: xc-table for Pade appr. of Perdew
 generate k-points for:    4    4    3
 POSCAR, INCAR and KPOINTS ok, starting setup
 FFT: planning ...
 WAVECAR not read
 entering main loop
       N       E                     dE             d eps       ncg     rms          rms(c)
DAV:   1     0.382739012252E+03    0.38274E+03   -0.20928E+04  1016   0.224E+03
DAV:   2    -0.137475204607E+02   -0.39649E+03   -0.38827E+03  1008   0.455E+02
DAV:   3    -0.527355517222E+02   -0.38988E+02   -0.36312E+02  1600   0.166E+02
DAV:   4    -0.556653016746E+02   -0.29297E+01   -0.26442E+01  1572   0.488E+01
DAV:   5    -0.558970833349E+02   -0.23178E+00   -0.20531E+00  1672   0.903E+00    0.275E+01
RMM:   6    -0.479832013743E+02    0.79139E+01   -0.74136E+01  1008   0.110E+02    0.133E+01
RMM:   7    -0.492724613866E+02   -0.12893E+01   -0.10405E+01  1059   0.330E+01    0.154E+01
RMM:   8    -0.483441411243E+02    0.92832E+00   -0.65225E+00  1019   0.294E+01    0.814E+00
RMM:   9    -0.480685873286E+02    0.27555E+00   -0.82213E-01  1061   0.111E+01    0.223E+00
RMM:  10    -0.482317854029E+02   -0.16320E+00   -0.10798E+00  1138   0.949E+00    0.527E+00
RMM:  11    -0.480683020017E+02    0.16348E+00   -0.34248E-01  1083   0.701E+00    0.113E+00
RMM:  12    -0.480903962649E+02   -0.22094E-01   -0.28036E-01  1550   0.183E+00    0.100E+00
RMM:  13    -0.480909989821E+02   -0.60272E-03   -0.22419E-02  1420   0.703E-01    0.808E-01
RMM:  14    -0.480906107590E+02    0.38822E-03   -0.19503E-02  1329   0.933E-01    0.317E-01
RMM:  15    -0.480910936389E+02   -0.48288E-03   -0.12837E-02  1537   0.569E-01    0.262E-01
RMM:  16    -0.480913111602E+02   -0.21752E-03   -0.19310E-03  1182   0.436E-01    0.665E-02
RMM:  17    -0.480912827472E+02    0.28413E-04   -0.11404E-03  1576   0.117E-01    0.126E-01
RMM:  18    -0.480911326043E+02    0.15014E-03   -0.11705E-04  1294   0.115E-01    0.507E-02
RMM:  19    -0.480911248506E+02    0.77537E-05   -0.75536E-05  1534   0.725E-02    0.301E-02
RMM:  20    -0.480911232812E+02    0.15694E-05    0.11985E-05  1526   0.371E-02    0.211E-02
RMM:  21    -0.480911230442E+02    0.23702E-06    0.27820E-05  1408   0.329E-02    0.882E-03
RMM:  22    -0.480911385410E+02   -0.15497E-04    0.64535E-06  1264   0.238E-02    0.632E-03
RMM:  23    -0.480911334360E+02    0.51051E-05    0.21051E-05   714   0.114E-02    0.293E-03
RMM:  24    -0.480911302468E+02    0.31892E-05    0.98302E-06   671   0.107E-02    0.327E-03
RMM:  25    -0.480911271808E+02    0.30660E-05    0.76958E-06   627   0.110E-02    0.146E-03
RMM:  26    -0.480911279470E+02   -0.76619E-06    0.36080E-06   627   0.729E-03
   1 F= -.48091128E+02 E0= -.48091128E+02  d E =0.000000E+00  mag=     0.0000
