 vasp.5.4.4.18Apr17-6-g9f103f2a35 (build Apr 28 2018 00:24:27) complex          
  
 executed on             LinuxIFC date 2021.03.24  18:12:59
 running on    8 total cores
 distrk:  each k-point on    8 cores,    1 groups
 distr:  one band on NCORES_PER_BAND=   4 cores,    2 groups


--------------------------------------------------------------------------------------------------------


 INCAR:
 POTCAR:    PAW_PBE Fe 06Sep2000                  
 POTCAR:    PAW_PBE Fe 06Sep2000                  
   SHA256 =  cd5a22d9368cc8b5cc476bea79732366149640da08ac9009b0e1b7fc627eea28 Fe
   COPYR  = (c) Copyright 06Sep2000 Georg Kresse                                
   COPYR  = This file is part of the software VASP. Any use, copying, and all ot
   COPYR  = If you do not have a valid VASP license, you may not use, copy or di
   VRHFIN =Fe:  d7 s1                                                           
   LEXCH  = PE                                                                  
   EATOM  =   594.3153 eV,   43.6809 Ry                                         
                                                                                
   TITEL  = PAW_PBE Fe 06Sep2000                                                
   LULTRA =        F    use ultrasoft PP ?                                      
   IUNSCR =        1    unscreen: 0-lin 1-nonlin 2-no                           
   RPACOR =    2.000    partial core radius                                     
   POMASS =   55.847; ZVAL   =    8.000    mass and valenz                      
   RCORE  =    2.300    outmost cutoff radius                                   
   RWIGS  =    2.460; RWIGS  =    1.302    wigner-seitz radius (au A)           
   ENMAX  =  267.882; ENMIN  =  200.911 eV                                      
   RCLOC  =    1.701    cutoff for local pot                                    
   LCOR   =        T    correct aug charges                                     
   LPAW   =        T    paw PP                                                  
   EAUG   =  511.368                                                            
   DEXC   =    0.000                                                            
   RMAX   =    2.356    core radius for proj-oper                               
   RAUG   =    1.300    factor for augmentation sphere                          
   RDEP   =    2.442    radius for radial grids                                 
   RDEPT  =    1.890    core radius for aug-charge                              
                                                                                
   Atomic configuration                                                         
    9 entries                                                                   
     n  l   j            E        occ.                                          
     1  0  0.50     -6993.8440   2.0000                                         
     2  0  0.50      -814.6047   2.0000                                         
     2  1  1.50      -693.3689   6.0000                                         
     3  0  0.50       -89.4732   2.0000                                         
     3  1  1.50       -55.6373   6.0000                                         
     3  2  2.50        -3.8151   7.0000                                         
     4  0  0.50        -4.2551   1.0000                                         
     4  1  1.50        -3.4015   0.0000                                         
     4  3  2.50        -1.3606   0.0000                                         
   Description                                                                  
     l       E           TYP  RCUT    TYP  RCUT                                 
     2     -3.8151135     23  2.300                                             
     2     -5.1756961     23  2.300                                             
     0     -4.2550963     23  2.300                                             
     0      7.2035603     23  2.300                                             
     1     -2.7211652     23  2.300                                             
     1     18.4316424     23  2.300                                             
  local pseudopotential read in
  partial core-charges read in
  partial kinetic energy density read in
  atomic valenz-charges read in
  non local Contribution for L=           2  read in
    real space projection operators read in
  non local Contribution for L=           2  read in
    real space projection operators read in
  non local Contribution for L=           0  read in
    real space projection operators read in
  non local Contribution for L=           0  read in
    real space projection operators read in
  non local Contribution for L=           1  read in
    real space projection operators read in
  non local Contribution for L=           1  read in
    real space projection operators read in
    PAW grid and wavefunctions read in
 
   number of l-projection  operators is LMAX  =           6
   number of lm-projection operators is LMMAX =          18
 
  PAW_PBE Fe 06Sep2000                  :
 energy of atom  1       EATOM= -594.3153
 kinetic energy error for atom=    0.0026 (will be added to EATOM!!)
 
 
 POSCAR: Fe2 str #: 9                            
  positions in direct lattice
  No initial velocities read in
 exchange correlation table for  LEXCH =        8
   RHO(1)=    0.500       N(1)  =     2000
   RHO(2)=  100.500       N(2)  =     4000
 


--------------------------------------------------------------------------------------------------------


 ion  position               nearest neighbor table
   1  0.000  0.000  0.000-   3 2.45   5 2.45   6 2.45   6 2.45   3 2.45   5 2.45   3 2.45   5 2.45
                             4 2.83   2 2.83   2 2.83   4 2.83   4 2.83   2 2.83
   2  0.667  0.333  0.333-   5 2.45   5 2.45   6 2.45   3 2.45   3 2.45   6 2.45   6 2.45   5 2.45
                             1 2.83   4 2.83   4 2.83   1 2.83   1 2.83   4 2.83
   3  0.667  0.333  0.833-   4 2.45   4 2.45   1 2.45   2 2.45   2 2.45   1 2.45   1 2.45   4 2.45
                             6 2.83   6 2.83   5 2.83   5 2.83   6 2.83   5 2.83
   4  0.333  0.667  0.667-   3 2.45   3 2.45   6 2.45   5 2.45   5 2.45   6 2.45   6 2.45   3 2.45
                             1 2.83   1 2.83   1 2.83   2 2.83   2 2.83   2 2.83
   5  0.333  0.667  0.167-   2 2.45   2 2.45   1 2.45   4 2.45   4 2.45   1 2.45   1 2.45   2 2.45
                             6 2.83   3 2.83   6 2.83   6 2.83   3 2.83   3 2.83
   6  0.000  0.000  0.500-   2 2.45   4 2.45   1 2.45   1 2.45   2 2.45   4 2.45   2 2.45   4 2.45
                             5 2.83   3 2.83   3 2.83   3 2.83   5 2.83   5 2.83
 
  LATTYP: Found a hexagonal cell.
 ALAT       =     3.9994793930
 C/A-ratio  =     1.2247448714
  
  Lattice vectors:
  
 A1 = (   2.8280590000,   0.0000000000,   2.8280590000)
 A2 = (  -2.8280590000,   2.8280590000,   0.0000000000)
 A3 = (  -2.8280590000,  -2.8280590000,   2.8280590000)


Analysis of symmetry for initial positions (statically):
=====================================================================
 Subroutine PRICEL returns following result:
 
  LATTYP: Found a body centered cubic cell.
 ALAT       =     2.8280590019
  
  Lattice vectors:
  
 A1 = (  -1.4140295028,   1.4140295000,   1.4140295000)
 A2 = (   1.4140294972,  -1.4140295000,   1.4140295000)
 A3 = (   1.4140295000,   1.4140295000,  -1.4140295000)
 
   6 primitive cells build up your supercell.
 

 Routine SETGRP: Setting up the symmetry group for a 
 hexagonal supercell.


 Subroutine GETGRP returns: Found 12 space group operations
 (whereof 12 operations were pure point group operations)
 out of a pool of 24 trial point group operations.


The static configuration has the point symmetry D_3d.


Analysis of symmetry for dynamics (positions and initial velocities):
=====================================================================
 Subroutine PRICEL returns following result:
 
  LATTYP: Found a body centered cubic cell.
 ALAT       =     2.8280590019
  
  Lattice vectors:
  
 A1 = (  -1.4140295028,   1.4140295000,   1.4140295000)
 A2 = (   1.4140294972,  -1.4140295000,   1.4140295000)
 A3 = (   1.4140295000,   1.4140295000,  -1.4140295000)
 
   6 primitive cells build up your supercell.
 

 Routine SETGRP: Setting up the symmetry group for a 
 hexagonal supercell.


 Subroutine GETGRP returns: Found 12 space group operations
 (whereof 12 operations were pure point group operations)
 out of a pool of 24 trial point group operations.


The dynamic configuration has the point symmetry D_3d.


Analysis of structural, dynamic, and magnetic symmetry:
=====================================================================
 Subroutine PRICEL returns:
 Original cell was already a primitive cell.
 

 Routine SETGRP: Setting up the symmetry group for a 
 hexagonal supercell.


 Subroutine GETGRP returns: Found 12 space group operations
 (whereof  6 operations were pure point group operations)
 out of a pool of 24 trial point group operations.


The magnetic configuration has the point symmetry C_3v.
 The point group associated with its full space group is D_3d.


 Subroutine INISYM returns: Found 12 space group operations
 (whereof  6 operations are pure point group operations),
 and found     1 'primitive' translations

 
 

Automatic generation of k-mesh.
 generate k-points for:    4    4    3
Space group operators:
 irot       det(A)        alpha          n_x          n_y          n_z        tau_x        tau_y        tau_z
    1     1.000000     0.000000     1.000000     0.000000     0.000000     0.000000     0.000000     0.000000
    2     1.000000   120.000000     0.577350     0.577350    -0.577350     0.000000     0.000000     0.000000
    3     1.000000   120.000000    -0.577350    -0.577350     0.577350     0.000000     0.000000     0.000000
    4    -1.000000   180.000000     0.707107     0.000000     0.707107     0.000000     0.000000     0.000000
    5    -1.000000   180.000000     0.707107    -0.707107     0.000000     0.000000     0.000000     0.000000
    6    -1.000000   180.000000     0.000000     0.707107     0.707107     0.000000     0.000000     0.000000
    7    -1.000000     0.000000     1.000000     0.000000     0.000000     0.000000     0.000000     0.500000
    8    -1.000000   120.000000     0.577350     0.577350    -0.577350     0.000000     0.000000     0.500000
    9    -1.000000   120.000000    -0.577350    -0.577350     0.577350     0.000000     0.000000     0.500000
   10     1.000000   180.000000     0.707107     0.000000     0.707107     0.000000     0.000000     0.500000
   11     1.000000   180.000000     0.707107    -0.707107     0.000000     0.000000     0.000000     0.500000
   12     1.000000   180.000000     0.000000     0.707107     0.707107     0.000000     0.000000     0.500000
 
 Subroutine IBZKPT returns following result:
 ===========================================
 
 Found      9 irreducible k-points:
 
 Following reciprocal coordinates:
            Coordinates               Weight
  0.000000  0.000000  0.000000      1.000000
  0.250000  0.000000  0.000000      6.000000
  0.500000  0.000000  0.000000      3.000000
  0.250000  0.250000  0.000000      6.000000
  0.000000  0.000000  0.333333      2.000000
  0.250000  0.000000  0.333333      6.000000
  0.500000  0.000000  0.333333      6.000000
 -0.250000  0.000000  0.333333      6.000000
  0.250000  0.250000  0.333333     12.000000
 
 Following cartesian coordinates:
            Coordinates               Weight
  0.000000  0.000000  0.000000      1.000000
  0.029467  0.029467  0.058933      6.000000
  0.058933  0.058933  0.117866      3.000000
  0.000000  0.088400  0.088400      6.000000
 -0.039289 -0.039289  0.039289      2.000000
 -0.009822 -0.009822  0.098222      6.000000
  0.019644  0.019644  0.157155      6.000000
 -0.068755 -0.068755 -0.019644      6.000000
 -0.039289  0.049111  0.127689     12.000000
 
 TETIRR: Found     58 inequivalent tetrahedra from      288


--------------------------------------------------------------------------------------------------------




 Dimension of arrays:
   k-points           NKPTS =      9   k-points in BZ     NKDIM =      9   number of bands    NBANDS=     28
   number of dos      NEDOS =    301   number of ions     NIONS =      6
   non local maximal  LDIM  =      6   non local SUM 2l+1 LMDIM =     18
   total plane-waves  NPLWV =  32400
   max r-space proj   IRMAX =      1   max aug-charges    IRDMAX=  17206
   dimension x,y,z NGX =    30 NGY =   30 NGZ =   36
   dimension x,y,z NGXF=    60 NGYF=   60 NGZF=   72
   support grid    NGXF=    60 NGYF=   60 NGZF=   72
   ions per type =               6
   NGX,Y,Z   is equivalent  to a cutoff of  12.47, 12.47, 12.22 a.u.
   NGXF,Y,Z  is equivalent  to a cutoff of  24.94, 24.94, 24.44 a.u.

 SYSTEM =  "Fe-alpha"                              
 POSCAR =  Fe2 str #: 9                            

 Startparameter for this run:
   NWRITE =      2    write-flag & timer
   PREC   = accura    normal or accurate (medium, high low for compatibility)
   ISTART =      0    job   : 0-new  1-cont  2-samecut
   ICHARG =      2    charge: 1-file 2-atom 10-const
   ISPIN  =      2    spin polarized calculation?
   LNONCOLLINEAR =      F non collinear calculations
   LSORBIT =      F    spin-orbit coupling
   INIWAV =      1    electr: 0-lowe 1-rand  2-diag
   LASPH  =      T    aspherical Exc in radial PAW
   METAGGA=      F    non-selfconsistent MetaGGA calc.

 Electronic Relaxation 1
   ENCUT  =  520.0 eV  38.22 Ry    6.18 a.u.   7.44  7.44  9.11*2*pi/ulx,y,z
   ENINI  =  520.0     initial cutoff
   ENAUG  =  511.4 eV  augmentation charge cutoff
   NELM   =     60;   NELMIN=  2; NELMDL= -5     # of ELM steps 
   EDIFF  = 0.1E-05   stopping-criterion for ELM
   LREAL  =      F    real-space projection
   NLSPLINE    = F    spline interpolate recip. space projectors
   LCOMPAT=      F    compatible to vasp.4.4
   GGA_COMPAT  = T    GGA compatible to vasp.4.4-vasp.4.6
   LMAXPAW     = -100 max onsite density
   LMAXMIX     =    2 max onsite mixed and CHGCAR
   VOSKOWN=      0    Vosko Wilk Nusair interpolation
   ROPT   =    0.00000
 Ionic relaxation
   EDIFFG = 0.1E-04   stopping-criterion for IOM
   NSW    =      0    number of steps for IOM
   NBLOCK =      1;   KBLOCK =      1    inner block; outer block 
   IBRION =     -1    ionic relax: 0-MD 1-quasi-New 2-CG
   NFREE  =      1    steps in history (QN), initial steepest desc. (CG)
   ISIF   =      2    stress and relaxation
   IWAVPR =     10    prediction:  0-non 1-charg 2-wave 3-comb
   ISYM   =      2    0-nonsym 1-usesym 2-fastsym
   LCORR  =      T    Harris-Foulkes like correction to forces

   POTIM  = 0.5000    time-step for ionic-motion
   TEIN   =    0.0    initial temperature
   TEBEG  =    0.0;   TEEND  =   0.0 temperature during run
   SMASS  =  -3.00    Nose mass-parameter (am)
   estimated Nose-frequenzy (Omega)   =  0.10E-29 period in steps =****** mass=  -0.366E-27a.u.
   SCALEE = 1.0000    scale energy and forces
   NPACO  =    256;   APACO  = 16.0  distance and # of slots for P.C.
   PSTRESS=    0.0 pullay stress

  Mass of Ions in am
   POMASS =  55.85
  Ionic Valenz
   ZVAL   =   8.00
  Atomic Wigner-Seitz radii
   RWIGS  =  -1.00
  virtual crystal weights 
   VCA    =   1.00
   NELECT =      48.0000    total number of electrons
   NUPDOWN=      -1.0000    fix difference up-down

 DOS related values:
   EMIN   =  10.00;   EMAX   =-10.00  energy-range for DOS
   EFERMI =   0.00
   ISMEAR =    -5;   SIGMA  =   0.05  broadening in eV -4-tet -1-fermi 0-gaus

 Electronic relaxation 2 (details)
   IALGO  =     68    algorithm
   LDIAG  =      T    sub-space diagonalisation (order eigenvalues)
   LSUBROT=      F    optimize rotation matrix (better conditioning)
   TURBO    =      0    0=normal 1=particle mesh
   IRESTART =      0    0=no restart 2=restart with 2 vectors
   NREBOOT  =      0    no. of reboots
   NMIN     =      0    reboot dimension
   EREF     =   0.00    reference energy to select bands
   IMIX   =      4    mixing-type and parameters
     AMIX     =   0.40;   BMIX     =  1.00
     AMIX_MAG =   1.60;   BMIX_MAG =  1.00
     AMIN     =   0.10
     WC   =   100.;   INIMIX=   1;  MIXPRE=   1;  MAXMIX= -45

 Intra band minimization:
   WEIMIN = 0.0000     energy-eigenvalue tresh-hold
   EBREAK =  0.89E-08  absolut break condition
   DEPER  =   0.30     relativ break condition  

   TIME   =   0.40     timestep for ELM

  volume/ion in A,a.u.               =      11.31        76.32
  Fermi-wavevector in a.u.,A,eV,Ry     =   1.458679  2.756503 28.949715  2.127744
  Thomas-Fermi vector in A             =   2.575335
 
 Write flags
   LWAVE        =      F    write WAVECAR
   LDOWNSAMPLE  =      F    k-point downsampling of WAVECAR
   LCHARG       =      T    write CHGCAR
   LVTOT        =      F    write LOCPOT, total local potential
   LVHAR        =      F    write LOCPOT, Hartree potential only
   LELF         =      F    write electronic localiz. function (ELF)
   LORBIT       =     11    0 simple, 1 ext, 2 COOP (PROOUT), +10 PAW based schemes


 Dipole corrections
   LMONO  =      F    monopole corrections only (constant potential shift)
   LDIPOL =      F    correct potential (dipole corrections)
   IDIPOL =      0    1-x, 2-y, 3-z, 4-all directions 
   EPSILON=  1.0000000 bulk dielectric constant

 Exchange correlation treatment:
   GGA     =    --    GGA type
   LEXCH   =     8    internal setting for exchange type
   VOSKOWN=      0    Vosko Wilk Nusair interpolation
   LHFCALC =     F    Hartree Fock is set to
   LHFONE  =     F    Hartree Fock one center treatment
   AEXX    =    0.0000 exact exchange contribution

 Linear response parameters
   LEPSILON=     F    determine dielectric tensor
   LRPA    =     F    only Hartree local field effects (RPA)
   LNABLA  =     F    use nabla operator in PAW spheres
   LVEL    =     F    velocity operator in full k-point grid
   LINTERFAST=   F  fast interpolation
   KINTER  =     0    interpolate to denser k-point grid
   CSHIFT  =0.1000    complex shift for real part using Kramers Kronig
   OMEGAMAX=  -1.0    maximum frequency
   DEG_THRESHOLD= 0.2000000E-02 threshold for treating states as degnerate
   RTIME   =   -0.100 relaxation time in fs
  (WPLASMAI=    0.000 imaginary part of plasma frequency in eV, 0.658/RTIME)
   DFIELD  = 0.0000000 0.0000000 0.0000000 field for delta impulse in time
 
 Orbital magnetization related:
   ORBITALMAG=     F  switch on orbital magnetization
   LCHIMAG   =     F  perturbation theory with respect to B field
   DQ        =  0.001000  dq finite difference perturbation B field
   LLRAUG    =     F  two centre corrections for induced B field



--------------------------------------------------------------------------------------------------------


 Static calculation
 charge density and potential will be updated during run
 spin polarized calculation
 RMM-DIIS sequential band-by-band and
  variant of blocked Davidson during initial phase
 perform sub-space diagonalisation
    before iterative eigenvector-optimisation
 modified Broyden-mixing scheme, WC =      100.0
 initial mixing is a Kerker type mixing with AMIX =  0.4000 and BMIX =      1.0000
 Hartree-type preconditioning will be used
 using additional bands            4
 reciprocal scheme for non local part
 use partial core corrections
 calculate Harris-corrections to forces 
   (improved forces if not selfconsistent)
 use gradient corrections 
 use of overlap-Matrix (Vanderbilt PP)
 Fermi weights with tetrahedron method with Bloechl corrections


--------------------------------------------------------------------------------------------------------


  energy-cutoff  :      520.00
  volume of cell :       67.86
      direct lattice vectors                 reciprocal lattice vectors
     2.828059000  0.000000000  2.828059000     0.117866471  0.117866471  0.235732941
    -2.828059000  2.828059000  0.000000000    -0.117866471  0.235732941  0.117866471
    -2.828059000 -2.828059000  2.828059000    -0.117866471 -0.117866471  0.117866471

  length of vectors
     3.999479393  3.999479393  4.898341875     0.288712711  0.288712711  0.204150716


 
 k-points in units of 2pi/SCALE and weight: read from INCAR                         
   0.00000000  0.00000000  0.00000000       0.021
   0.02946662  0.02946662  0.05893324       0.125
   0.05893324  0.05893324  0.11786647       0.062
   0.00000000  0.08839985  0.08839985       0.125
  -0.03928882 -0.03928882  0.03928882       0.042
  -0.00982221 -0.00982221  0.09822206       0.125
   0.01964441  0.01964441  0.15715529       0.125
  -0.06875544 -0.06875544 -0.01964441       0.125
  -0.03928882  0.04911103  0.12768868       0.250
 
 k-points in reciprocal lattice and weights: read from INCAR                         
   0.00000000  0.00000000  0.00000000       0.021
   0.25000000  0.00000000  0.00000000       0.125
   0.50000000  0.00000000  0.00000000       0.062
   0.25000000  0.25000000  0.00000000       0.125
   0.00000000  0.00000000  0.33333333       0.042
   0.25000000  0.00000000  0.33333333       0.125
   0.50000000  0.00000000  0.33333333       0.125
  -0.25000000  0.00000000  0.33333333       0.125
   0.25000000  0.25000000  0.33333333       0.250
 
 position of ions in fractional coordinates (direct lattice) 
   0.00000000  0.00000000  0.00000000
   0.66666667  0.33333333  0.33333333
   0.66666667  0.33333333  0.83333333
   0.33333333  0.66666667  0.66666667
   0.33333333  0.66666667  0.16666667
   0.00000000  0.00000000  0.50000000
 
 position of ions in cartesian coordinates  (Angst):
   0.00000000  0.00000000  0.00000000
   0.00000000  0.00000000  2.82805900
  -1.41402950 -1.41402950  4.24208850
  -2.82805900  0.00000000  2.82805900
  -1.41402950  1.41402950  1.41402950
  -1.41402950 -1.41402950  1.41402950
 


--------------------------------------------------------------------------------------------------------


 k-point  1 :   0.0000 0.0000 0.0000  plane waves:    1837
 k-point  2 :   0.2500 0.0000 0.0000  plane waves:    1815
 k-point  3 :   0.5000 0.0000 0.0000  plane waves:    1844
 k-point  4 :   0.2500 0.2500 0.0000  plane waves:    1825
 k-point  5 :   0.0000 0.0000 0.3333  plane waves:    1830
 k-point  6 :   0.2500 0.0000 0.3333  plane waves:    1842
 k-point  7 :   0.5000 0.0000 0.3333  plane waves:    1820
 k-point  8 :  -0.2500 0.0000 0.3333  plane waves:    1842
 k-point  9 :   0.2500 0.2500 0.3333  plane waves:    1826

 maximum and minimum number of plane-waves per node :       474      441

 maximum number of plane-waves:      1844
 maximum index in each direction: 
   IXMAX=    7   IYMAX=    7   IZMAX=    9
   IXMIN=   -7   IYMIN=   -7   IZMIN=   -9


 parallel 3D FFT for wavefunctions:
    minimum data exchange during FFTs selected (reduces bandwidth)
 parallel 3D FFT for charge:
    minimum data exchange during FFTs selected (reduces bandwidth)


 total amount of memory used by VASP MPI-rank0    37443. kBytes
=======================================================================

   base      :      30000. kBytes
   nonl-proj :        659. kBytes
   fftplans  :       1426. kBytes
   grid      :       3240. kBytes
   one-center:         62. kBytes
   wavefun   :       2056. kBytes
 
     INWAV:  cpu time    0.0000: real time    0.0001
 Broyden mixing: mesh for mixing (old mesh)
   NGX = 15   NGY = 15   NGZ = 19
  (NGX  = 60   NGY  = 60   NGZ  = 72)
  gives a total of   4275 points

 initial charge density was supplied:
 charge density of overlapping atoms calculated
 number of electron      48.0000000 magnetization      -0.0000000
 keeping initial charge density in first step


--------------------------------------------------------------------------------------------------------


 Maximum index for augmentation-charges         2433 (set IRDMAX)


--------------------------------------------------------------------------------------------------------


 First call to EWALD:  gamma=   0.435
 Maximum number of real-space cells 3x 3x 2
 Maximum number of reciprocal cells 3x 3x 3

    FEWALD:  cpu time    0.0015: real time    0.0015


--------------------------------------- Iteration      1(   1)  ---------------------------------------


    POTLOK:  cpu time    0.0476: real time    0.0478
    SETDIJ:  cpu time    0.6141: real time    0.6157
     EDDAV:  cpu time    0.3481: real time    0.3637
 BZINTS: Fermi energy: 20.706548; 48.000000 electrons
         Band energy: 694.811303;  BLOECHL correction: -0.067735
       DOS:  cpu time    0.0051: real time    0.0051
    --------------------------------------------
      LOOP:  cpu time    1.0149: real time    1.0323

 eigenvalue-minimisations  :  1016
 total energy-change (2. order) : 0.3827390E+03  (-0.2092755E+04)
 number of electron      48.0000000 magnetization      -0.0000000
 augmentation part       48.0000000 magnetization      -0.0000000

 Free energy of the ion-electron system (eV)
  ---------------------------------------------------
  alpha Z        PSCENC =       366.67429890
  Ewald energy   TEWEN  =     -3557.77738875
  -Hartree energ DENC   =      -667.14784578
  -exchange      EXHF   =         0.00000000
  -V(xc)+E(xc)   XCENC  =        26.57679828
  PAW double counting   =      3325.77271703    -3372.04695465
  entropy T*S    EENTRO =         0.00000000
  eigenvalues    EBANDS =       694.81130300
  atomic energy  EATOM  =      3565.87608422
  Solvation  Ediel_sol  =         0.00000000
  ---------------------------------------------------
  free energy    TOTEN  =       382.73901225 eV

  energy without entropy =      382.73901225  energy(sigma->0) =      382.73901225


--------------------------------------------------------------------------------------------------------




--------------------------------------- Iteration      1(   2)  ---------------------------------------


     EDDAV:  cpu time    0.3329: real time    0.3362
 BZINTS: Fermi energy: 10.148240; 48.000000 electrons
         Band energy: 298.324770;  BLOECHL correction: -0.108200
       DOS:  cpu time    0.0051: real time    0.0051
    --------------------------------------------
      LOOP:  cpu time    0.3380: real time    0.3413

 eigenvalue-minimisations  :  1008
 total energy-change (2. order) :-0.3964865E+03  (-0.3882712E+03)
 number of electron      48.0000000 magnetization      -0.0000000
 augmentation part       48.0000000 magnetization      -0.0000000

 Free energy of the ion-electron system (eV)
  ---------------------------------------------------
  alpha Z        PSCENC =       366.67429890
  Ewald energy   TEWEN  =     -3557.77738875
  -Hartree energ DENC   =      -667.14784578
  -exchange      EXHF   =         0.00000000
  -V(xc)+E(xc)   XCENC  =        26.57679828
  PAW double counting   =      3325.77271703    -3372.04695465
  entropy T*S    EENTRO =         0.00000000
  eigenvalues    EBANDS =       298.32477029
  atomic energy  EATOM  =      3565.87608422
  Solvation  Ediel_sol  =         0.00000000
  ---------------------------------------------------
  free energy    TOTEN  =       -13.74752046 eV

  energy without entropy =      -13.74752046  energy(sigma->0) =      -13.74752046


--------------------------------------------------------------------------------------------------------




--------------------------------------- Iteration      1(   3)  ---------------------------------------


     EDDAV:  cpu time    0.4436: real time    0.4450
 BZINTS: Fermi energy:  8.813392; 48.000000 electrons
         Band energy: 259.336739;  BLOECHL correction: -0.030612
       DOS:  cpu time    0.0050: real time    0.0050
    --------------------------------------------
      LOOP:  cpu time    0.4487: real time    0.4501

 eigenvalue-minimisations  :  1600
 total energy-change (2. order) :-0.3898803E+02  (-0.3631171E+02)
 number of electron      48.0000000 magnetization      -0.0000000
 augmentation part       48.0000000 magnetization      -0.0000000

 Free energy of the ion-electron system (eV)
  ---------------------------------------------------
  alpha Z        PSCENC =       366.67429890
  Ewald energy   TEWEN  =     -3557.77738875
  -Hartree energ DENC   =      -667.14784578
  -exchange      EXHF   =         0.00000000
  -V(xc)+E(xc)   XCENC  =        26.57679828
  PAW double counting   =      3325.77271703    -3372.04695465
  entropy T*S    EENTRO =         0.00000000
  eigenvalues    EBANDS =       259.33673903
  atomic energy  EATOM  =      3565.87608422
  Solvation  Ediel_sol  =         0.00000000
  ---------------------------------------------------
  free energy    TOTEN  =       -52.73555172 eV

  energy without entropy =      -52.73555172  energy(sigma->0) =      -52.73555172


--------------------------------------------------------------------------------------------------------




--------------------------------------- Iteration      1(   4)  ---------------------------------------


     EDDAV:  cpu time    0.4474: real time    0.4485
 BZINTS: Fermi energy:  8.527033; 48.000000 electrons
         Band energy: 256.406989;  BLOECHL correction: -0.039875
       DOS:  cpu time    0.0051: real time    0.0051
    --------------------------------------------
      LOOP:  cpu time    0.4524: real time    0.4536

 eigenvalue-minimisations  :  1572
 total energy-change (2. order) :-0.2929750E+01  (-0.2644223E+01)
 number of electron      48.0000000 magnetization      -0.0000000
 augmentation part       48.0000000 magnetization      -0.0000000

 Free energy of the ion-electron system (eV)
  ---------------------------------------------------
  alpha Z        PSCENC =       366.67429890
  Ewald energy   TEWEN  =     -3557.77738875
  -Hartree energ DENC   =      -667.14784578
  -exchange      EXHF   =         0.00000000
  -V(xc)+E(xc)   XCENC  =        26.57679828
  PAW double counting   =      3325.77271703    -3372.04695465
  entropy T*S    EENTRO =         0.00000000
  eigenvalues    EBANDS =       256.40698907
  atomic energy  EATOM  =      3565.87608422
  Solvation  Ediel_sol  =         0.00000000
  ---------------------------------------------------
  free energy    TOTEN  =       -55.66530167 eV

  energy without entropy =      -55.66530167  energy(sigma->0) =      -55.66530167


--------------------------------------------------------------------------------------------------------




--------------------------------------- Iteration      1(   5)  ---------------------------------------


     EDDAV:  cpu time    0.4817: real time    0.4830
 BZINTS: Fermi energy:  8.472016; 48.000000 electrons
         Band energy: 256.175207;  BLOECHL correction: -0.039524
       DOS:  cpu time    0.0050: real time    0.0050
    CHARGE:  cpu time    0.0386: real time    0.0387
    MIXING:  cpu time    0.0009: real time    0.0009
    --------------------------------------------
      LOOP:  cpu time    0.5262: real time    0.5276

 eigenvalue-minimisations  :  1672
 total energy-change (2. order) :-0.2317817E+00  (-0.2053074E+00)
 number of electron      47.9999974 magnetization      -0.0000000
 augmentation part       21.5248711 magnetization      -0.0000000

 Broyden mixing:
  rms(total) = 0.27516E+01    rms(broyden)= 0.27516E+01
  rms(prec ) = 0.43436E+01
  weight for this iteration     100.00

 Free energy of the ion-electron system (eV)
  ---------------------------------------------------
  alpha Z        PSCENC =       366.67429890
  Ewald energy   TEWEN  =     -3557.77738875
  -Hartree energ DENC   =      -667.14784578
  -exchange      EXHF   =         0.00000000
  -V(xc)+E(xc)   XCENC  =        26.57679828
  PAW double counting   =      3325.77271703    -3372.04695465
  entropy T*S    EENTRO =         0.00000000
  eigenvalues    EBANDS =       256.17520741
  atomic energy  EATOM  =      3565.87608422
  Solvation  Ediel_sol  =         0.00000000
  ---------------------------------------------------
  free energy    TOTEN  =       -55.89708333 eV

  energy without entropy =      -55.89708333  energy(sigma->0) =      -55.89708333


--------------------------------------------------------------------------------------------------------




--------------------------------------- Iteration      1(   6)  ---------------------------------------


    POTLOK:  cpu time    0.0396: real time    0.0398
    SETDIJ:  cpu time    0.6192: real time    0.6208
    EDDIAG:  cpu time    0.0794: real time    0.0795
  RMM-DIIS:  cpu time    0.2393: real time    0.2399
    ORTHCH:  cpu time    0.0077: real time    0.0077
 BZINTS: Fermi energy:  5.440696; 48.000000 electrons
         Band energy: 152.003563;  BLOECHL correction: -0.085534
       DOS:  cpu time    0.0053: real time    0.0053
    CHARGE:  cpu time    0.0400: real time    0.0401
    MIXING:  cpu time    0.0011: real time    0.0011
    --------------------------------------------
      LOOP:  cpu time    1.0316: real time    1.0343

 eigenvalue-minimisations  :  1008
 total energy-change (2. order) : 0.7913882E+01  (-0.7413615E+01)
 number of electron      47.9999969 magnetization       0.0000000
 augmentation part       25.1015029 magnetization       0.0000000

 Broyden mixing:
  rms(total) = 0.13335E+01    rms(broyden)= 0.13334E+01
  rms(prec ) = 0.14739E+01
  weight for this iteration     100.00

 eigenvalues of (default mixing * dielectric matrix)
  average eigenvalue GAMMA=   0.6024
  0.6024

 Free energy of the ion-electron system (eV)
  ---------------------------------------------------
  alpha Z        PSCENC =       366.67429890
  Ewald energy   TEWEN  =     -3557.77738875
  -Hartree energ DENC   =      -563.79995611
  -exchange      EXHF   =         0.00000000
  -V(xc)+E(xc)   XCENC  =        21.81222150
  PAW double counting   =      3640.43347363    -3673.20549757
  entropy T*S    EENTRO =         0.00000000
  eigenvalues    EBANDS =       152.00356281
  atomic energy  EATOM  =      3565.87608422
  Solvation  Ediel_sol  =         0.00000000
  ---------------------------------------------------
  free energy    TOTEN  =       -47.98320137 eV

  energy without entropy =      -47.98320137  energy(sigma->0) =      -47.98320137


--------------------------------------------------------------------------------------------------------




--------------------------------------- Iteration      1(   7)  ---------------------------------------


    POTLOK:  cpu time    0.0435: real time    0.0437
    SETDIJ:  cpu time    0.6067: real time    0.6081
    EDDIAG:  cpu time    0.0738: real time    0.0740
  RMM-DIIS:  cpu time    0.2512: real time    0.2518
    ORTHCH:  cpu time    0.0079: real time    0.0079
 BZINTS: Fermi energy:  6.017153; 48.000000 electrons
         Band energy: 164.350884;  BLOECHL correction: -0.070974
       DOS:  cpu time    0.0046: real time    0.0046
    CHARGE:  cpu time    0.0375: real time    0.0376
    MIXING:  cpu time    0.0010: real time    0.0010
    --------------------------------------------
      LOOP:  cpu time    1.0261: real time    1.0286

 eigenvalue-minimisations  :  1059
 total energy-change (2. order) :-0.1289260E+01  (-0.1040469E+01)
 number of electron      47.9999969 magnetization       0.0000000
 augmentation part       25.0722612 magnetization       0.0000000

 Broyden mixing:
  rms(total) = 0.15366E+01    rms(broyden)= 0.15366E+01
  rms(prec ) = 0.30935E+01
  weight for this iteration     100.00

 eigenvalues of (default mixing * dielectric matrix)
  average eigenvalue GAMMA=   0.6952
  0.8694  0.5209

 Free energy of the ion-electron system (eV)
  ---------------------------------------------------
  alpha Z        PSCENC =       366.67429890
  Ewald energy   TEWEN  =     -3557.77738875
  -Hartree energ DENC   =      -568.28031237
  -exchange      EXHF   =         0.00000000
  -V(xc)+E(xc)   XCENC  =        23.32091747
  PAW double counting   =      3860.41484494    -3903.85178933
  entropy T*S    EENTRO =         0.00000000
  eigenvalues    EBANDS =       164.35088354
  atomic energy  EATOM  =      3565.87608422
  Solvation  Ediel_sol  =         0.00000000
  ---------------------------------------------------
  free energy    TOTEN  =       -49.27246139 eV

  energy without entropy =      -49.27246139  energy(sigma->0) =      -49.27246139


--------------------------------------------------------------------------------------------------------




--------------------------------------- Iteration      1(   8)  ---------------------------------------


    POTLOK:  cpu time    0.0409: real time    0.0411
    SETDIJ:  cpu time    0.6319: real time    0.6334
    EDDIAG:  cpu time    0.0755: real time    0.0756
  RMM-DIIS:  cpu time    0.2275: real time    0.2281
    ORTHCH:  cpu time    0.0077: real time    0.0077
 BZINTS: Fermi energy:  5.972614; 48.000000 electrons
         Band energy: 168.219650;  BLOECHL correction: -0.088768
       DOS:  cpu time    0.0049: real time    0.0049
    CHARGE:  cpu time    0.0389: real time    0.0390
    MIXING:  cpu time    0.0011: real time    0.0011
    --------------------------------------------
      LOOP:  cpu time    1.0284: real time    1.0309

 eigenvalue-minimisations  :  1019
 total energy-change (2. order) : 0.9283203E+00  (-0.6522547E+00)
 number of electron      47.9999969 magnetization       0.0000000
 augmentation part       24.9941373 magnetization       0.0000000

 Broyden mixing:
  rms(total) = 0.81389E+00    rms(broyden)= 0.81387E+00
  rms(prec ) = 0.13825E+01
  weight for this iteration     100.00

 eigenvalues of (default mixing * dielectric matrix)
  average eigenvalue GAMMA=   0.6079
  1.0851  0.5600  0.1786

 Free energy of the ion-electron system (eV)
  ---------------------------------------------------
  alpha Z        PSCENC =       366.67429890
  Ewald energy   TEWEN  =     -3557.77738875
  -Hartree energ DENC   =      -569.36567094
  -exchange      EXHF   =         0.00000000
  -V(xc)+E(xc)   XCENC  =        23.43584579
  PAW double counting   =      3911.45603102    -3956.86299107
  entropy T*S    EENTRO =         0.00000000
  eigenvalues    EBANDS =       168.21964971
  atomic energy  EATOM  =      3565.87608422
  Solvation  Ediel_sol  =         0.00000000
  ---------------------------------------------------
  free energy    TOTEN  =       -48.34414112 eV

  energy without entropy =      -48.34414112  energy(sigma->0) =      -48.34414112


--------------------------------------------------------------------------------------------------------




--------------------------------------- Iteration      1(   9)  ---------------------------------------


    POTLOK:  cpu time    0.0424: real time    0.0426
    SETDIJ:  cpu time    0.6705: real time    0.6721
    EDDIAG:  cpu time    0.0764: real time    0.0765
  RMM-DIIS:  cpu time    0.2306: real time    0.2312
    ORTHCH:  cpu time    0.0074: real time    0.0074
 BZINTS: Fermi energy:  6.095591; 48.000000 electrons
         Band energy: 173.098216;  BLOECHL correction: -0.091055
       DOS:  cpu time    0.0048: real time    0.0048
    CHARGE:  cpu time    0.0392: real time    0.0393
    MIXING:  cpu time    0.0011: real time    0.0011
    --------------------------------------------
      LOOP:  cpu time    1.0724: real time    1.0750

 eigenvalue-minimisations  :  1061
 total energy-change (2. order) : 0.2755538E+00  (-0.8221269E-01)
 number of electron      47.9999970 magnetization       0.0000000
 augmentation part       24.8700998 magnetization       0.0000000

 Broyden mixing:
  rms(total) = 0.22268E+00    rms(broyden)= 0.22268E+00
  rms(prec ) = 0.32890E+00
  weight for this iteration     100.00

 eigenvalues of (default mixing * dielectric matrix)
  average eigenvalue GAMMA=   0.7899
  1.5153  0.7339  0.7339  0.1766

 Free energy of the ion-electron system (eV)
  ---------------------------------------------------
  alpha Z        PSCENC =       366.67429890
  Ewald energy   TEWEN  =     -3557.77738875
  -Hartree energ DENC   =      -570.85146451
  -exchange      EXHF   =         0.00000000
  -V(xc)+E(xc)   XCENC  =        23.48843385
  PAW double counting   =      4008.26420771    -4056.84097462
  entropy T*S    EENTRO =         0.00000000
  eigenvalues    EBANDS =       173.09821588
  atomic energy  EATOM  =      3565.87608422
  Solvation  Ediel_sol  =         0.00000000
  ---------------------------------------------------
  free energy    TOTEN  =       -48.06858733 eV

  energy without entropy =      -48.06858733  energy(sigma->0) =      -48.06858733


--------------------------------------------------------------------------------------------------------




--------------------------------------- Iteration      1(  10)  ---------------------------------------


    POTLOK:  cpu time    0.0407: real time    0.0409
    SETDIJ:  cpu time    0.6613: real time    0.6629
    EDDIAG:  cpu time    0.0790: real time    0.0792
  RMM-DIIS:  cpu time    0.2551: real time    0.2557
    ORTHCH:  cpu time    0.0078: real time    0.0078
 BZINTS: Fermi energy:  6.211067; 48.000000 electrons
         Band energy: 174.574870;  BLOECHL correction: -0.086356
       DOS:  cpu time    0.0046: real time    0.0046
    CHARGE:  cpu time    0.0365: real time    0.0366
    MIXING:  cpu time    0.0010: real time    0.0010
    --------------------------------------------
      LOOP:  cpu time    1.0860: real time    1.0887

 eigenvalue-minimisations  :  1138
 total energy-change (2. order) :-0.1631981E+00  (-0.1079822E+00)
 number of electron      47.9999969 magnetization       0.0000000
 augmentation part       24.8149178 magnetization       0.0000000

 Broyden mixing:
  rms(total) = 0.52663E+00    rms(broyden)= 0.52662E+00
  rms(prec ) = 0.10801E+01
  weight for this iteration     100.00

 eigenvalues of (default mixing * dielectric matrix)
  average eigenvalue GAMMA=   0.7021
  1.6915  0.7430  0.7430  0.1664  0.1664

 Free energy of the ion-electron system (eV)
  ---------------------------------------------------
  alpha Z        PSCENC =       366.67429890
  Ewald energy   TEWEN  =     -3557.77738875
  -Hartree energ DENC   =      -570.26761023
  -exchange      EXHF   =         0.00000000
  -V(xc)+E(xc)   XCENC  =        23.68540316
  PAW double counting   =      4106.82647809    -4157.82392102
  entropy T*S    EENTRO =         0.00000000
  eigenvalues    EBANDS =       174.57487023
  atomic energy  EATOM  =      3565.87608422
  Solvation  Ediel_sol  =         0.00000000
  ---------------------------------------------------
  free energy    TOTEN  =       -48.23178540 eV

  energy without entropy =      -48.23178540  energy(sigma->0) =      -48.23178540


--------------------------------------------------------------------------------------------------------




--------------------------------------- Iteration      1(  11)  ---------------------------------------


    POTLOK:  cpu time    0.0357: real time    0.0359
    SETDIJ:  cpu time    0.6396: real time    0.6411
    EDDIAG:  cpu time    0.0793: real time    0.0795
  RMM-DIIS:  cpu time    0.2562: real time    0.2568
    ORTHCH:  cpu time    0.0075: real time    0.0075
 BZINTS: Fermi energy:  6.190185; 48.000000 electrons
         Band energy: 175.515172;  BLOECHL correction: -0.086593
       DOS:  cpu time    0.0050: real time    0.0050
    CHARGE:  cpu time    0.0396: real time    0.0397
    MIXING:  cpu time    0.0012: real time    0.0012
    --------------------------------------------
      LOOP:  cpu time    1.0641: real time    1.0667

 eigenvalue-minimisations  :  1083
 total energy-change (2. order) : 0.1634834E+00  (-0.3424778E-01)
 number of electron      47.9999969 magnetization       0.0000000
 augmentation part       24.7965671 magnetization       0.0000000

 Broyden mixing:
  rms(total) = 0.11323E+00    rms(broyden)= 0.11322E+00
  rms(prec ) = 0.20494E+00
  weight for this iteration     100.00

 eigenvalues of (default mixing * dielectric matrix)
  average eigenvalue GAMMA=   0.7127
  1.8957  0.7520  0.7520  0.5162  0.1723  0.1879

 Free energy of the ion-electron system (eV)
  ---------------------------------------------------
  alpha Z        PSCENC =       366.67429890
  Ewald energy   TEWEN  =     -3557.77738875
  -Hartree energ DENC   =      -569.53467428
  -exchange      EXHF   =         0.00000000
  -V(xc)+E(xc)   XCENC  =        23.78867010
  PAW double counting   =      4177.33445747    -4229.94492147
  entropy T*S    EENTRO =         0.00000000
  eigenvalues    EBANDS =       175.51517181
  atomic energy  EATOM  =      3565.87608422
  Solvation  Ediel_sol  =         0.00000000
  ---------------------------------------------------
  free energy    TOTEN  =       -48.06830200 eV

  energy without entropy =      -48.06830200  energy(sigma->0) =      -48.06830200


--------------------------------------------------------------------------------------------------------




--------------------------------------- Iteration      1(  12)  ---------------------------------------


    POTLOK:  cpu time    0.0411: real time    0.0413
    SETDIJ:  cpu time    0.5984: real time    0.5998
    EDDIAG:  cpu time    0.0792: real time    0.0794
  RMM-DIIS:  cpu time    0.3524: real time    0.3536
    ORTHCH:  cpu time    0.0077: real time    0.0077
 BZINTS: Fermi energy:  6.169454; 48.000000 electrons
         Band energy: 174.828409;  BLOECHL correction: -0.088761
       DOS:  cpu time    0.0042: real time    0.0042
    CHARGE:  cpu time    0.0352: real time    0.0353
    MIXING:  cpu time    0.0011: real time    0.0011
    --------------------------------------------
      LOOP:  cpu time    1.1193: real time    1.1224

 eigenvalue-minimisations  :  1550
 total energy-change (2. order) :-0.2209426E-01  (-0.2803551E-01)
 number of electron      47.9999969 magnetization       0.0000000
 augmentation part       24.8291908 magnetization       0.0000000

 Broyden mixing:
  rms(total) = 0.10014E+00    rms(broyden)= 0.10013E+00
  rms(prec ) = 0.18230E+00
  weight for this iteration     100.00

 eigenvalues of (default mixing * dielectric matrix)
  average eigenvalue GAMMA=   0.6381
  1.9377  0.7506  0.7506  0.5221  0.1831  0.1612  0.1612

 Free energy of the ion-electron system (eV)
  ---------------------------------------------------
  alpha Z        PSCENC =       366.67429890
  Ewald energy   TEWEN  =     -3557.77738875
  -Hartree energ DENC   =      -568.29764337
  -exchange      EXHF   =         0.00000000
  -V(xc)+E(xc)   XCENC  =        23.77902935
  PAW double counting   =      4217.55662686    -4270.72981225
  entropy T*S    EENTRO =         0.00000000
  eigenvalues    EBANDS =       174.82840877
  atomic energy  EATOM  =      3565.87608422
  Solvation  Ediel_sol  =         0.00000000
  ---------------------------------------------------
  free energy    TOTEN  =       -48.09039626 eV

  energy without entropy =      -48.09039626  energy(sigma->0) =      -48.09039626


--------------------------------------------------------------------------------------------------------




--------------------------------------- Iteration      1(  13)  ---------------------------------------


    POTLOK:  cpu time    0.0385: real time    0.0387
    SETDIJ:  cpu time    0.5922: real time    0.5936
    EDDIAG:  cpu time    0.0759: real time    0.0761
  RMM-DIIS:  cpu time    0.3251: real time    0.3259
    ORTHCH:  cpu time    0.0075: real time    0.0075
 BZINTS: Fermi energy:  6.170507; 48.000000 electrons
         Band energy: 174.647064;  BLOECHL correction: -0.088133
       DOS:  cpu time    0.0049: real time    0.0049
    CHARGE:  cpu time    0.0393: real time    0.0394
    MIXING:  cpu time    0.0014: real time    0.0014
    --------------------------------------------
      LOOP:  cpu time    1.0849: real time    1.0876

 eigenvalue-minimisations  :  1420
 total energy-change (2. order) :-0.6027172E-03  (-0.2241911E-02)
 number of electron      47.9999969 magnetization      -0.0000000
 augmentation part       24.8357389 magnetization      -0.0000000

 Broyden mixing:
  rms(total) = 0.80810E-01    rms(broyden)= 0.80810E-01
  rms(prec ) = 0.14497E+00
  weight for this iteration     100.00

 eigenvalues of (default mixing * dielectric matrix)
  average eigenvalue GAMMA=   0.7939
  2.2103  0.8749  0.8749  0.7447  0.7447  0.5352  0.1748  0.1917

 Free energy of the ion-electron system (eV)
  ---------------------------------------------------
  alpha Z        PSCENC =       366.67429890
  Ewald energy   TEWEN  =     -3557.77738875
  -Hartree energ DENC   =      -567.89189980
  -exchange      EXHF   =         0.00000000
  -V(xc)+E(xc)   XCENC  =        23.80995439
  PAW double counting   =      4235.57254686    -4289.00165929
  entropy T*S    EENTRO =         0.00000000
  eigenvalues    EBANDS =       174.64706449
  atomic energy  EATOM  =      3565.87608422
  Solvation  Ediel_sol  =         0.00000000
  ---------------------------------------------------
  free energy    TOTEN  =       -48.09099898 eV

  energy without entropy =      -48.09099898  energy(sigma->0) =      -48.09099898


--------------------------------------------------------------------------------------------------------




--------------------------------------- Iteration      1(  14)  ---------------------------------------


    POTLOK:  cpu time    0.0427: real time    0.0429
    SETDIJ:  cpu time    0.6227: real time    0.6242
    EDDIAG:  cpu time    0.0771: real time    0.0773
  RMM-DIIS:  cpu time    0.2950: real time    0.2957
    ORTHCH:  cpu time    0.0079: real time    0.0079
 BZINTS: Fermi energy:  6.174210; 48.000000 electrons
         Band energy: 174.292608;  BLOECHL correction: -0.087038
       DOS:  cpu time    0.0047: real time    0.0048
    CHARGE:  cpu time    0.0401: real time    0.0402
    MIXING:  cpu time    0.0014: real time    0.0014
    --------------------------------------------
      LOOP:  cpu time    1.0917: real time    1.0944

 eigenvalue-minimisations  :  1329
 total energy-change (2. order) : 0.3882231E-03  (-0.1950280E-02)
 number of electron      47.9999969 magnetization      -0.0000000
 augmentation part       24.8443339 magnetization      -0.0000000

 Broyden mixing:
  rms(total) = 0.31708E-01    rms(broyden)= 0.31706E-01
  rms(prec ) = 0.51330E-01
  weight for this iteration     100.00

 eigenvalues of (default mixing * dielectric matrix)
  average eigenvalue GAMMA=   0.9204
  2.8364  1.4433  0.9287  0.9287  0.6554  0.5623  0.5623  0.1920  0.1749

 Free energy of the ion-electron system (eV)
  ---------------------------------------------------
  alpha Z        PSCENC =       366.67429890
  Ewald energy   TEWEN  =     -3557.77738875
  -Hartree energ DENC   =      -567.23598296
  -exchange      EXHF   =         0.00000000
  -V(xc)+E(xc)   XCENC  =        23.91758088
  PAW double counting   =      4270.91898166    -4324.75679301
  entropy T*S    EENTRO =         0.00000000
  eigenvalues    EBANDS =       174.29260830
  atomic energy  EATOM  =      3565.87608422
  Solvation  Ediel_sol  =         0.00000000
  ---------------------------------------------------
  free energy    TOTEN  =       -48.09061076 eV

  energy without entropy =      -48.09061076  energy(sigma->0) =      -48.09061076


--------------------------------------------------------------------------------------------------------




--------------------------------------- Iteration      1(  15)  ---------------------------------------


    POTLOK:  cpu time    0.0438: real time    0.0440
    SETDIJ:  cpu time    0.6606: real time    0.6622
    EDDIAG:  cpu time    0.0731: real time    0.0732
  RMM-DIIS:  cpu time    0.3269: real time    0.3277
    ORTHCH:  cpu time    0.0075: real time    0.0075
 BZINTS: Fermi energy:  6.176713; 48.000000 electrons
         Band energy: 174.206468;  BLOECHL correction: -0.086725
       DOS:  cpu time    0.0048: real time    0.0048
    CHARGE:  cpu time    0.0383: real time    0.0384
    MIXING:  cpu time    0.0014: real time    0.0014
    --------------------------------------------
      LOOP:  cpu time    1.1562: real time    1.1591

 eigenvalue-minimisations  :  1537
 total energy-change (2. order) :-0.4828799E-03  (-0.1283702E-02)
 number of electron      47.9999969 magnetization       0.0000000
 augmentation part       24.8470132 magnetization       0.0000000

 Broyden mixing:
  rms(total) = 0.26224E-01    rms(broyden)= 0.26223E-01
  rms(prec ) = 0.48876E-01
  weight for this iteration     100.00

 eigenvalues of (default mixing * dielectric matrix)
  average eigenvalue GAMMA=   1.0028
  2.8797  2.1749  0.9808  0.9808  0.7780  0.7601  0.5533  0.5533  0.1920  0.1749

 Free energy of the ion-electron system (eV)
  ---------------------------------------------------
  alpha Z        PSCENC =       366.67429890
  Ewald energy   TEWEN  =     -3557.77738875
  -Hartree energ DENC   =      -567.15741034
  -exchange      EXHF   =         0.00000000
  -V(xc)+E(xc)   XCENC  =        23.93937384
  PAW double counting   =      4280.39148476    -4334.24400418
  entropy T*S    EENTRO =         0.00000000
  eigenvalues    EBANDS =       174.20646791
  atomic energy  EATOM  =      3565.87608422
  Solvation  Ediel_sol  =         0.00000000
  ---------------------------------------------------
  free energy    TOTEN  =       -48.09109364 eV

  energy without entropy =      -48.09109364  energy(sigma->0) =      -48.09109364


--------------------------------------------------------------------------------------------------------




--------------------------------------- Iteration      1(  16)  ---------------------------------------


    POTLOK:  cpu time    0.0397: real time    0.0398
    SETDIJ:  cpu time    0.6717: real time    0.6733
    EDDIAG:  cpu time    0.0789: real time    0.0791
  RMM-DIIS:  cpu time    0.2512: real time    0.2518
    ORTHCH:  cpu time    0.0067: real time    0.0067
 BZINTS: Fermi energy:  6.173546; 48.000000 electrons
         Band energy: 174.230132;  BLOECHL correction: -0.087037
       DOS:  cpu time    0.0040: real time    0.0040
    CHARGE:  cpu time    0.0354: real time    0.0355
    MIXING:  cpu time    0.0015: real time    0.0015
    --------------------------------------------
      LOOP:  cpu time    1.0891: real time    1.0918

 eigenvalue-minimisations  :  1182
 total energy-change (2. order) :-0.2175213E-03  (-0.1930993E-03)
 number of electron      47.9999969 magnetization      -0.0000000
 augmentation part       24.8481222 magnetization      -0.0000000

 Broyden mixing:
  rms(total) = 0.66540E-02    rms(broyden)= 0.66531E-02
  rms(prec ) = 0.11152E-01
  weight for this iteration     100.00

 eigenvalues of (default mixing * dielectric matrix)
  average eigenvalue GAMMA=   1.0122
  2.5723  2.5723  1.3715  0.8644  0.8644  0.7068  0.7068  0.5712  0.5378  0.1749
  0.1920

 Free energy of the ion-electron system (eV)
  ---------------------------------------------------
  alpha Z        PSCENC =       366.67429890
  Ewald energy   TEWEN  =     -3557.77738875
  -Hartree energ DENC   =      -567.31897593
  -exchange      EXHF   =         0.00000000
  -V(xc)+E(xc)   XCENC  =        23.93707804
  PAW double counting   =      4276.34442923    -4330.05696871
  entropy T*S    EENTRO =         0.00000000
  eigenvalues    EBANDS =       174.23013185
  atomic energy  EATOM  =      3565.87608422
  Solvation  Ediel_sol  =         0.00000000
  ---------------------------------------------------
  free energy    TOTEN  =       -48.09131116 eV

  energy without entropy =      -48.09131116  energy(sigma->0) =      -48.09131116


--------------------------------------------------------------------------------------------------------




--------------------------------------- Iteration      1(  17)  ---------------------------------------


    POTLOK:  cpu time    0.0409: real time    0.0411
    SETDIJ:  cpu time    0.6503: real time    0.6518
    EDDIAG:  cpu time    0.0786: real time    0.0788
  RMM-DIIS:  cpu time    0.3568: real time    0.3576
    ORTHCH:  cpu time    0.0070: real time    0.0070
 BZINTS: Fermi energy:  6.174729; 48.000000 electrons
         Band energy: 174.262093;  BLOECHL correction: -0.086826
       DOS:  cpu time    0.0046: real time    0.0046
    CHARGE:  cpu time    0.0382: real time    0.0383
    MIXING:  cpu time    0.0016: real time    0.0016
    --------------------------------------------
      LOOP:  cpu time    1.1780: real time    1.1809

 eigenvalue-minimisations  :  1576
 total energy-change (2. order) : 0.2841297E-04  (-0.1140381E-03)
 number of electron      47.9999969 magnetization      -0.0000000
 augmentation part       24.8464103 magnetization      -0.0000000

 Broyden mixing:
  rms(total) = 0.12568E-01    rms(broyden)= 0.12568E-01
  rms(prec ) = 0.23241E-01
  weight for this iteration     100.00

 eigenvalues of (default mixing * dielectric matrix)
  average eigenvalue GAMMA=   1.0480
  2.9714  2.9714  1.2843  0.9032  0.9032  0.1749  0.1920  0.7817  0.7817  0.5342
  0.5342  0.5436

 Free energy of the ion-electron system (eV)
  ---------------------------------------------------
  alpha Z        PSCENC =       366.67429890
  Ewald energy   TEWEN  =     -3557.77738875
  -Hartree energ DENC   =      -567.35872409
  -exchange      EXHF   =         0.00000000
  -V(xc)+E(xc)   XCENC  =        23.94099552
  PAW double counting   =      4276.31852191    -4330.02716300
  entropy T*S    EENTRO =         0.00000000
  eigenvalues    EBANDS =       174.26209254
  atomic energy  EATOM  =      3565.87608422
  Solvation  Ediel_sol  =         0.00000000
  ---------------------------------------------------
  free energy    TOTEN  =       -48.09128275 eV

  energy without entropy =      -48.09128275  energy(sigma->0) =      -48.09128275


--------------------------------------------------------------------------------------------------------




--------------------------------------- Iteration      1(  18)  ---------------------------------------


    POTLOK:  cpu time    0.0374: real time    0.0378
    SETDIJ:  cpu time    0.6205: real time    0.6221
    EDDIAG:  cpu time    0.0787: real time    0.0789
  RMM-DIIS:  cpu time    0.3042: real time    0.3049
    ORTHCH:  cpu time    0.0075: real time    0.0075
 BZINTS: Fermi energy:  6.175589; 48.000000 electrons
         Band energy: 174.258039;  BLOECHL correction: -0.086696
       DOS:  cpu time    0.0047: real time    0.0047
    CHARGE:  cpu time    0.0396: real time    0.0397
    MIXING:  cpu time    0.0018: real time    0.0018
    --------------------------------------------
      LOOP:  cpu time    1.0944: real time    1.0974

 eigenvalue-minimisations  :  1294
 total energy-change (2. order) : 0.1501429E-03  (-0.1170518E-04)
 number of electron      47.9999969 magnetization       0.0000000
 augmentation part       24.8460852 magnetization       0.0000000

 Broyden mixing:
  rms(total) = 0.50656E-02    rms(broyden)= 0.50654E-02
  rms(prec ) = 0.90601E-02
  weight for this iteration     100.00

 eigenvalues of (default mixing * dielectric matrix)
  average eigenvalue GAMMA=   1.0793
  3.1398  3.1398  1.4126  0.9921  0.9921  0.1749  0.1920  0.8037  0.8037  0.6453
  0.6453  0.5446  0.5446

 Free energy of the ion-electron system (eV)
  ---------------------------------------------------
  alpha Z        PSCENC =       366.67429890
  Ewald energy   TEWEN  =     -3557.77738875
  -Hartree energ DENC   =      -567.36779798
  -exchange      EXHF   =         0.00000000
  -V(xc)+E(xc)   XCENC  =        23.94771262
  PAW double counting   =      4276.76496619    -4330.46704702
  entropy T*S    EENTRO =         0.00000000
  eigenvalues    EBANDS =       174.25803922
  atomic energy  EATOM  =      3565.87608422
  Solvation  Ediel_sol  =         0.00000000
  ---------------------------------------------------
  free energy    TOTEN  =       -48.09113260 eV

  energy without entropy =      -48.09113260  energy(sigma->0) =      -48.09113260


--------------------------------------------------------------------------------------------------------




--------------------------------------- Iteration      1(  19)  ---------------------------------------


    POTLOK:  cpu time    0.0433: real time    0.0436
    SETDIJ:  cpu time    0.6056: real time    0.6070
    EDDIAG:  cpu time    0.0791: real time    0.0793
  RMM-DIIS:  cpu time    0.3544: real time    0.3552
    ORTHCH:  cpu time    0.0075: real time    0.0075
 BZINTS: Fermi energy:  6.175311; 48.000000 electrons
         Band energy: 174.236062;  BLOECHL correction: -0.086675
       DOS:  cpu time    0.0040: real time    0.0040
    CHARGE:  cpu time    0.0396: real time    0.0397
    MIXING:  cpu time    0.0018: real time    0.0018
    --------------------------------------------
      LOOP:  cpu time    1.1352: real time    1.1380

 eigenvalue-minimisations  :  1534
 total energy-change (2. order) : 0.7753694E-05  (-0.7553622E-05)
 number of electron      47.9999969 magnetization       0.0000000
 augmentation part       24.8468520 magnetization       0.0000000

 Broyden mixing:
  rms(total) = 0.30076E-02    rms(broyden)= 0.30074E-02
  rms(prec ) = 0.34977E-02
  weight for this iteration     100.00

 eigenvalues of (default mixing * dielectric matrix)
  average eigenvalue GAMMA=   1.0950
  3.4930  3.1675  1.5095  1.1118  1.1118  0.8261  0.8261  0.1749  0.1920  0.6925
  0.6925  0.5445  0.5445  0.4440

 Free energy of the ion-electron system (eV)
  ---------------------------------------------------
  alpha Z        PSCENC =       366.67429890
  Ewald energy   TEWEN  =     -3557.77738875
  -Hartree energ DENC   =      -567.34459179
  -exchange      EXHF   =         0.00000000
  -V(xc)+E(xc)   XCENC  =        23.94700114
  PAW double counting   =      4276.62674433    -4330.32933513
  entropy T*S    EENTRO =         0.00000000
  eigenvalues    EBANDS =       174.23606223
  atomic energy  EATOM  =      3565.87608422
  Solvation  Ediel_sol  =         0.00000000
  ---------------------------------------------------
  free energy    TOTEN  =       -48.09112485 eV

  energy without entropy =      -48.09112485  energy(sigma->0) =      -48.09112485


--------------------------------------------------------------------------------------------------------




--------------------------------------- Iteration      1(  20)  ---------------------------------------


    POTLOK:  cpu time    0.0424: real time    0.0426
    SETDIJ:  cpu time    0.5993: real time    0.6008
    EDDIAG:  cpu time    0.0757: real time    0.0758
  RMM-DIIS:  cpu time    0.3546: real time    0.3554
    ORTHCH:  cpu time    0.0075: real time    0.0075
 BZINTS: Fermi energy:  6.175227; 48.000000 electrons
         Band energy: 174.229952;  BLOECHL correction: -0.086672
       DOS:  cpu time    0.0048: real time    0.0048
    CHARGE:  cpu time    0.0394: real time    0.0395
    MIXING:  cpu time    0.0019: real time    0.0019
    --------------------------------------------
      LOOP:  cpu time    1.1255: real time    1.1283

 eigenvalue-minimisations  :  1526
 total energy-change (2. order) : 0.1569393E-05  ( 0.1198522E-05)
 number of electron      47.9999969 magnetization      -0.0000000
 augmentation part       24.8470191 magnetization      -0.0000000

 Broyden mixing:
  rms(total) = 0.21086E-02    rms(broyden)= 0.21085E-02
  rms(prec ) = 0.28954E-02
  weight for this iteration     100.00

 eigenvalues of (default mixing * dielectric matrix)
  average eigenvalue GAMMA=   1.1817
  4.4255  2.9459  1.8486  1.1942  1.1942  0.1749  0.1920  0.9111  0.9111  0.8098
  0.8098  0.5991  0.5991  0.5552  0.5552

 Free energy of the ion-electron system (eV)
  ---------------------------------------------------
  alpha Z        PSCENC =       366.67429890
  Ewald energy   TEWEN  =     -3557.77738875
  -Hartree energ DENC   =      -567.33260952
  -exchange      EXHF   =         0.00000000
  -V(xc)+E(xc)   XCENC  =        23.94791298
  PAW double counting   =      4276.82145903    -4330.53083172
  entropy T*S    EENTRO =         0.00000000
  eigenvalues    EBANDS =       174.22995158
  atomic energy  EATOM  =      3565.87608422
  Solvation  Ediel_sol  =         0.00000000
  ---------------------------------------------------
  free energy    TOTEN  =       -48.09112328 eV

  energy without entropy =      -48.09112328  energy(sigma->0) =      -48.09112328


--------------------------------------------------------------------------------------------------------




--------------------------------------- Iteration      1(  21)  ---------------------------------------


    POTLOK:  cpu time    0.0423: real time    0.0425
    SETDIJ:  cpu time    0.6137: real time    0.6152
    EDDIAG:  cpu time    0.0781: real time    0.0783
  RMM-DIIS:  cpu time    0.3272: real time    0.3281
    ORTHCH:  cpu time    0.0074: real time    0.0074
 BZINTS: Fermi energy:  6.175152; 48.000000 electrons
         Band energy: 174.225854;  BLOECHL correction: -0.086676
       DOS:  cpu time    0.0049: real time    0.0049
    CHARGE:  cpu time    0.0399: real time    0.0400
    MIXING:  cpu time    0.0023: real time    0.0023
    --------------------------------------------
      LOOP:  cpu time    1.1158: real time    1.1185

 eigenvalue-minimisations  :  1408
 total energy-change (2. order) : 0.2370225E-06  ( 0.2781986E-05)
 number of electron      47.9999969 magnetization      -0.0000000
 augmentation part       24.8471659 magnetization      -0.0000000

 Broyden mixing:
  rms(total) = 0.88229E-03    rms(broyden)= 0.88210E-03
  rms(prec ) = 0.11901E-02
  weight for this iteration     100.00

 eigenvalues of (default mixing * dielectric matrix)
  average eigenvalue GAMMA=   1.2219
  4.9848  3.0315  2.2422  1.1171  1.1171  1.0417  1.0417  0.1749  0.1920  0.8089
  0.8089  0.6438  0.6438  0.5716  0.5716  0.5580

 Free energy of the ion-electron system (eV)
  ---------------------------------------------------
  alpha Z        PSCENC =       366.67429890
  Ewald energy   TEWEN  =     -3557.77738875
  -Hartree energ DENC   =      -567.31772321
  -exchange      EXHF   =         0.00000000
  -V(xc)+E(xc)   XCENC  =        23.94896648
  PAW double counting   =      4277.27574618    -4330.99696130
  entropy T*S    EENTRO =         0.00000000
  eigenvalues    EBANDS =       174.22585444
  atomic energy  EATOM  =      3565.87608422
  Solvation  Ediel_sol  =         0.00000000
  ---------------------------------------------------
  free energy    TOTEN  =       -48.09112304 eV

  energy without entropy =      -48.09112304  energy(sigma->0) =      -48.09112304


--------------------------------------------------------------------------------------------------------




--------------------------------------- Iteration      1(  22)  ---------------------------------------


    POTLOK:  cpu time    0.0442: real time    0.0443
    SETDIJ:  cpu time    0.6007: real time    0.6021
    EDDIAG:  cpu time    0.0726: real time    0.0728
  RMM-DIIS:  cpu time    0.2846: real time    0.2853
    ORTHCH:  cpu time    0.0076: real time    0.0077
 BZINTS: Fermi energy:  6.174929; 48.000000 electrons
         Band energy: 174.221138;  BLOECHL correction: -0.086698
       DOS:  cpu time    0.0048: real time    0.0048
    CHARGE:  cpu time    0.0401: real time    0.0402
    MIXING:  cpu time    0.0023: real time    0.0023
    --------------------------------------------
      LOOP:  cpu time    1.0569: real time    1.0595

 eigenvalue-minimisations  :  1264
 total energy-change (2. order) :-0.1549685E-04  ( 0.6453471E-06)
 number of electron      47.9999969 magnetization       0.0000000
 augmentation part       24.8474165 magnetization       0.0000000

 Broyden mixing:
  rms(total) = 0.63214E-03    rms(broyden)= 0.63200E-03
  rms(prec ) = 0.13952E-02
  weight for this iteration     100.00

 eigenvalues of (default mixing * dielectric matrix)
  average eigenvalue GAMMA=   1.2074
  4.9054  3.1348  2.1391  1.1497  1.1497  1.0590  1.0590  0.9221  0.9221  0.1749
  0.1920  0.7282  0.7282  0.5739  0.5739  0.5399  0.5737

 Free energy of the ion-electron system (eV)
  ---------------------------------------------------
  alpha Z        PSCENC =       366.67429890
  Ewald energy   TEWEN  =     -3557.77738875
  -Hartree energ DENC   =      -567.30485408
  -exchange      EXHF   =         0.00000000
  -V(xc)+E(xc)   XCENC  =        23.94827225
  PAW double counting   =      4277.47884433    -4331.20753371
  entropy T*S    EENTRO =         0.00000000
  eigenvalues    EBANDS =       174.22113830
  atomic energy  EATOM  =      3565.87608422
  Solvation  Ediel_sol  =         0.00000000
  ---------------------------------------------------
  free energy    TOTEN  =       -48.09113854 eV

  energy without entropy =      -48.09113854  energy(sigma->0) =      -48.09113854


--------------------------------------------------------------------------------------------------------




--------------------------------------- Iteration      1(  23)  ---------------------------------------


    POTLOK:  cpu time    0.0420: real time    0.0422
    SETDIJ:  cpu time    0.6139: real time    0.6153
    EDDIAG:  cpu time    0.0756: real time    0.0758
  RMM-DIIS:  cpu time    0.1767: real time    0.1771
    ORTHCH:  cpu time    0.0074: real time    0.0074
 BZINTS: Fermi energy:  6.174935; 48.000000 electrons
         Band energy: 174.220729;  BLOECHL correction: -0.086695
       DOS:  cpu time    0.0047: real time    0.0048
    CHARGE:  cpu time    0.0392: real time    0.0393
    MIXING:  cpu time    0.0024: real time    0.0024
    --------------------------------------------
      LOOP:  cpu time    0.9618: real time    0.9642

 eigenvalue-minimisations  :   714
 total energy-change (2. order) : 0.5105078E-05  ( 0.2105102E-05)
 number of electron      47.9999969 magnetization      -0.0000000
 augmentation part       24.8474422 magnetization      -0.0000000

 Broyden mixing:
  rms(total) = 0.29310E-03    rms(broyden)= 0.29307E-03
  rms(prec ) = 0.67249E-03
  weight for this iteration     100.00

 eigenvalues of (default mixing * dielectric matrix)
  average eigenvalue GAMMA=   1.1981
  5.0282  3.0284  2.0255  1.6339  1.0789  1.0789  0.1920  0.1749  0.9668  0.9668
  0.8212  0.8212  0.8240  0.5881  0.5881  0.6325  0.5584  0.5584

 Free energy of the ion-electron system (eV)
  ---------------------------------------------------
  alpha Z        PSCENC =       366.67429890
  Ewald energy   TEWEN  =     -3557.77738875
  -Hartree energ DENC   =      -567.30367362
  -exchange      EXHF   =         0.00000000
  -V(xc)+E(xc)   XCENC  =        23.94797978
  PAW double counting   =      4277.51281297    -4331.24197552
  entropy T*S    EENTRO =         0.00000000
  eigenvalues    EBANDS =       174.22072858
  atomic energy  EATOM  =      3565.87608422
  Solvation  Ediel_sol  =         0.00000000
  ---------------------------------------------------
  free energy    TOTEN  =       -48.09113344 eV

  energy without entropy =      -48.09113344  energy(sigma->0) =      -48.09113344


--------------------------------------------------------------------------------------------------------




--------------------------------------- Iteration      1(  24)  ---------------------------------------


    POTLOK:  cpu time    0.0425: real time    0.0427
    SETDIJ:  cpu time    0.6185: real time    0.6199
    EDDIAG:  cpu time    0.0755: real time    0.0756
  RMM-DIIS:  cpu time    0.1613: real time    0.1617
    ORTHCH:  cpu time    0.0079: real time    0.0079
 BZINTS: Fermi energy:  6.174963; 48.000000 electrons
         Band energy: 174.221207;  BLOECHL correction: -0.086690
       DOS:  cpu time    0.0048: real time    0.0048
    CHARGE:  cpu time    0.0384: real time    0.0384
    MIXING:  cpu time    0.0024: real time    0.0024
    --------------------------------------------
      LOOP:  cpu time    0.9512: real time    0.9536

 eigenvalue-minimisations  :   671
 total energy-change (2. order) : 0.3189153E-05  ( 0.9830241E-06)
 number of electron      47.9999969 magnetization      -0.0000000
 augmentation part       24.8473891 magnetization      -0.0000000

 Broyden mixing:
  rms(total) = 0.32652E-03    rms(broyden)= 0.32652E-03
  rms(prec ) = 0.63386E-03
  weight for this iteration     100.00

 eigenvalues of (default mixing * dielectric matrix)
  average eigenvalue GAMMA=   1.1632
  4.8499  3.0191  1.8683  1.8683  1.0973  1.0973  1.0725  0.9319  0.9319  0.1749
  0.1920  0.8032  0.8032  0.6255  0.6255  0.5650  0.5650  0.5251  0.4849

 Free energy of the ion-electron system (eV)
  ---------------------------------------------------
  alpha Z        PSCENC =       366.67429890
  Ewald energy   TEWEN  =     -3557.77738875
  -Hartree energ DENC   =      -567.30381648
  -exchange      EXHF   =         0.00000000
  -V(xc)+E(xc)   XCENC  =        23.94808604
  PAW double counting   =      4277.56647412    -4331.29607549
  entropy T*S    EENTRO =         0.00000000
  eigenvalues    EBANDS =       174.22120720
  atomic energy  EATOM  =      3565.87608422
  Solvation  Ediel_sol  =         0.00000000
  ---------------------------------------------------
  free energy    TOTEN  =       -48.09113025 eV

  energy without entropy =      -48.09113025  energy(sigma->0) =      -48.09113025


--------------------------------------------------------------------------------------------------------




--------------------------------------- Iteration      1(  25)  ---------------------------------------


    POTLOK:  cpu time    0.0421: real time    0.0423
    SETDIJ:  cpu time    0.6245: real time    0.6261
    EDDIAG:  cpu time    0.0767: real time    0.0768
  RMM-DIIS:  cpu time    0.1510: real time    0.1514
    ORTHCH:  cpu time    0.0072: real time    0.0072
 BZINTS: Fermi energy:  6.174981; 48.000000 electrons
         Band energy: 174.220606;  BLOECHL correction: -0.086687
       DOS:  cpu time    0.0048: real time    0.0048
    CHARGE:  cpu time    0.0380: real time    0.0381
    MIXING:  cpu time    0.0024: real time    0.0024
    --------------------------------------------
      LOOP:  cpu time    0.9466: real time    0.9491

 eigenvalue-minimisations  :   627
 total energy-change (2. order) : 0.3065988E-05  ( 0.7695817E-06)
 number of electron      47.9999969 magnetization      -0.0000000
 augmentation part       24.8474418 magnetization      -0.0000000

 Broyden mixing:
  rms(total) = 0.14568E-03    rms(broyden)= 0.14567E-03
  rms(prec ) = 0.15299E-03
  weight for this iteration     100.00

 eigenvalues of (default mixing * dielectric matrix)
  average eigenvalue GAMMA=   1.1977
  5.1613  3.0532  2.3253  2.0630  1.1852  1.1852  1.0307  1.0307  0.1749  0.1920
  0.8269  0.8269  0.7747  0.7747  0.6035  0.6035  0.5534  0.5534  0.5262  0.5095

 Free energy of the ion-electron system (eV)
  ---------------------------------------------------
  alpha Z        PSCENC =       366.67429890
  Ewald energy   TEWEN  =     -3557.77738875
  -Hartree energ DENC   =      -567.30288132
  -exchange      EXHF   =         0.00000000
  -V(xc)+E(xc)   XCENC  =        23.94810743
  PAW double counting   =      4277.61107072    -4331.34102416
  entropy T*S    EENTRO =         0.00000000
  eigenvalues    EBANDS =       174.22060578
  atomic energy  EATOM  =      3565.87608422
  Solvation  Ediel_sol  =         0.00000000
  ---------------------------------------------------
  free energy    TOTEN  =       -48.09112718 eV

  energy without entropy =      -48.09112718  energy(sigma->0) =      -48.09112718


--------------------------------------------------------------------------------------------------------




--------------------------------------- Iteration      1(  26)  ---------------------------------------


    POTLOK:  cpu time    0.0396: real time    0.0398
    SETDIJ:  cpu time    0.6359: real time    0.6377
    EDDIAG:  cpu time    0.0733: real time    0.0734
  RMM-DIIS:  cpu time    0.1505: real time    0.1509
    ORTHCH:  cpu time    0.0072: real time    0.0072
 BZINTS: Fermi energy:  6.174972; 48.000000 electrons
         Band energy: 174.220629;  BLOECHL correction: -0.086688
       DOS:  cpu time    0.0047: real time    0.0048
    --------------------------------------------
      LOOP:  cpu time    0.9111: real time    0.9137

 eigenvalue-minimisations  :   627
 total energy-change (2. order) :-0.7661861E-06  ( 0.3607959E-06)
 number of electron      47.9999969 magnetization      -0.0000000
 augmentation part       24.8474418 magnetization      -0.0000000

 Free energy of the ion-electron system (eV)
  ---------------------------------------------------
  alpha Z        PSCENC =       366.67429890
  Ewald energy   TEWEN  =     -3557.77738875
  -Hartree energ DENC   =      -567.30203748
  -exchange      EXHF   =         0.00000000
  -V(xc)+E(xc)   XCENC  =        23.94799079
  PAW double counting   =      4277.64647530    -4331.37718034
  entropy T*S    EENTRO =         0.00000000
  eigenvalues    EBANDS =       174.22062941
  atomic energy  EATOM  =      3565.87608422
  Solvation  Ediel_sol  =         0.00000000
  ---------------------------------------------------
  free energy    TOTEN  =       -48.09112795 eV

  energy without entropy =      -48.09112795  energy(sigma->0) =      -48.09112795


--------------------------------------------------------------------------------------------------------




 average (electrostatic) potential at core
  the test charge radii are     1.0103
  (the norm of the test charge is              1.0000)
       1 -43.2779       2 -43.4395       3 -43.3334       4 -43.3334       5 -43.4395
       6 -43.2779
 
 
 
 E-fermi :   6.1750     XC(G=0): -13.1482     alpha+bet :-13.7060


 spin component 1

 k-point     1 :       0.0000    0.0000    0.0000
  band No.  band energies     occupation 
      1      -2.5083      1.00000
      2       1.6211      1.00000
      3       1.6212      1.00000
      4       2.2791      1.00000
      5       2.3835      1.00000
      6       2.6192      1.00000
      7       2.7762      1.00000
      8       2.7762      1.00000
      9       2.9172      1.00000
     10       2.9172      1.00000
     11       3.1992      1.00000
     12       3.5376      1.00000
     13       3.5376      1.00000
     14       3.7839      1.00000
     15       3.7840      1.00000
     16       4.3825      1.00000
     17       4.3825      1.00000
     18       4.6520      1.00000
     19       5.2848      1.00000
     20       5.2848      1.00000
     21       5.4097      1.00000
     22       5.4097      1.00000
     23       6.3856      0.52149
     24       6.3858     -0.10642
     25       6.8349     -0.11088
     26       7.0880      0.00000
     27       7.3478      0.00000
     28       7.3663      0.00000

 k-point     2 :       0.2500    0.0000    0.0000
  band No.  band energies     occupation 
      1      -1.6629      1.00000
      2       1.6267      1.00000
      3       1.8975      1.00000
      4       1.9211      1.00000
      5       2.0710      1.00000
      6       2.1892      1.00000
      7       2.4036      1.00000
      8       2.8611      1.00000
      9       2.9914      1.00000
     10       3.2319      1.00000
     11       3.5154      1.00000
     12       3.5787      1.00000
     13       3.8474      1.00000
     14       4.2080      1.00000
     15       4.4668      1.00000
     16       4.5193      1.00000
     17       4.5425      1.00000
     18       4.8367      1.00000
     19       5.1044      1.00000
     20       5.2616      1.00000
     21       5.4891      1.00000
     22       5.5016      1.00000
     23       6.0549      0.98286
     24       6.2000      0.53977
     25       6.3981     -0.04995
     26       6.7117      0.00000
     27       6.7662      0.00000
     28       7.1747      0.00000

 k-point     3 :       0.5000    0.0000    0.0000
  band No.  band energies     occupation 
      1       0.3713      1.00000
      2       0.5913      1.00000
      3       1.3794      1.00000
      4       1.4241      1.00000
[...]
      1      -0.9556      1.00000
      2       0.6547      1.00000
      3       1.9880      1.00000
      4       2.2488      1.00000
      5       2.2571      1.00000
      6       2.6273      1.00000
      7       2.7836      1.00000
      8       2.8909      1.00000
      9       3.0760      1.00000
     10       3.0852      1.00000
     11       3.3200      1.00000
     12       3.4568      1.00000
     13       3.7528      1.00000
     14       3.9014      1.00000
     15       4.0948      1.00000
     16       4.5375      1.00000
     17       4.6114      1.00000
     18       4.8894      1.00000
     19       4.9913      1.00000
     20       5.2196      1.00000
     21       5.4103      1.00000
     22       5.6957      1.00000
     23       5.8174      1.00697
     24       6.1485      0.78140
     25       6.1876      0.27003
     26       6.6179      0.00000
     27       6.6517      0.00000
     28       6.7655      0.00000

 k-point     7 :       0.5000    0.0000    0.3333
  band No.  band energies     occupation 
      1       0.9307      1.00000
      2       1.0654      1.00000
      3       1.4590      1.00000
      4       1.8362      1.00000
      5       1.9665      1.00000
      6       2.6646      1.00000
      7       2.9040      1.00000
      8       3.0948      1.00000
      9       3.1197      1.00000
     10       3.2363      1.00000
     11       3.3411      1.00000
     12       3.4940      1.00000
     13       3.5387      1.00000
     14       3.8127      1.00000
     15       4.4056      1.00000
     16       4.4416      1.00000
     17       4.6786      1.00000
     18       4.9075      1.00000
     19       5.0515      1.00000
     20       5.2415      1.00000
     21       5.2856      1.00000
     22       5.4700      1.00000
     23       5.7247      1.00034
     24       6.0378      0.98629
     25       6.0955      0.62411
     26       6.4375      0.00000
     27       6.6171      0.00000
     28       6.8523      0.00000

 k-point     8 :      -0.2500    0.0000    0.3333
  band No.  band energies     occupation 
      1      -0.9652      1.00000
      2       0.7767      1.00000
      3       2.0415      1.00000
      4       2.2323      1.00000
      5       2.2750      1.00000
      6       2.3711      1.00000
      7       2.5744      1.00000
      8       2.8647      1.00000
      9       2.9113      1.00000
     10       2.9451      1.00000
     11       3.5924      1.00000
     12       3.6813      1.00000
     13       3.8330      1.00000
     14       4.0120      1.00000
     15       4.1762      1.00000
     16       4.4715      1.00000
     17       4.4984      1.00000
     18       4.9749      1.00000
     19       5.1703      1.00000
     20       5.3633      1.00000
     21       5.5454      1.00000
     22       5.5659      1.00000
     23       5.7812      1.01035
     24       5.9039      1.06162
     25       6.0135      0.88567
     26       6.4930      0.00000
     27       6.7597      0.00000
     28       6.8009      0.00000

 k-point     9 :       0.2500    0.2500    0.3333
  band No.  band energies     occupation 
      1       0.4030      1.00000
      2       1.4401      1.00000
      3       1.7593      1.00000
      4       1.9392      1.00000
      5       2.1898      1.00000
      6       2.3352      1.00000
      7       2.7491      1.00000
      8       3.0719      1.00000
      9       3.1882      1.00000
     10       3.3330      1.00000
     11       3.4678      1.00000
     12       3.6014      1.00000
     13       3.6697      1.00000
     14       3.8319      1.00000
     15       4.1970      1.00000
     16       4.2948      1.00000
     17       4.4448      1.00000
     18       4.6276      1.00000
     19       5.0869      1.00000
     20       5.2321      1.00000
     21       5.3981      1.00000
     22       5.4684      1.00000
     23       5.8069      1.00019
     24       5.9767      1.01702
     25       6.2747      0.02636
     26       6.3908      0.00000
     27       6.8052      0.00000
     28       6.9337      0.00000


--------------------------------------------------------------------------------------------------------


 soft charge-density along one line, spin component           1
         0         1         2         3         4         5         6         7         8         9
 total charge-density along one line
 
 soft charge-density along one line, spin component           2
         0         1         2         3         4         5         6         7         8         9
 total charge-density along one line
 
 pseudopotential strength for first ion, spin component:           1
 -5.266   0.027   0.010   0.027   0.000  -5.806   0.026   0.010
  0.027  -5.266   0.005  -0.027  -0.009   0.026  -5.806   0.005
  0.010   0.005  -5.577   0.005   0.000   0.010   0.005  -6.108
  0.027  -0.027   0.005  -5.266   0.009   0.026  -0.026   0.005
  0.000  -0.009   0.000   0.009  -5.577   0.000  -0.008   0.000
 -5.806   0.026   0.010   0.026   0.000  -6.305   0.025   0.009
  0.026  -5.806   0.005  -0.026  -0.008   0.025  -6.305   0.005
  0.010   0.005  -6.108   0.005   0.000   0.009   0.005  -6.596
  0.026  -0.026   0.005  -5.806   0.008   0.025  -0.025   0.005
  0.000  -0.008   0.000   0.008  -6.108   0.000  -0.008   0.000
  0.006  -0.006   0.000  -0.006  -0.000   0.005  -0.005   0.000
  0.010  -0.010   0.000  -0.010  -0.000   0.010  -0.010   0.000
  0.002  -0.002   0.001   0.007   0.001   0.002  -0.002   0.001
  0.007   0.002   0.002   0.002  -0.000   0.006   0.002   0.001
  0.002   0.007   0.001  -0.002  -0.001   0.002   0.006   0.001
  0.003  -0.003   0.001   0.009   0.002   0.003  -0.003   0.001
  0.009   0.003   0.002   0.003  -0.000   0.008   0.003   0.002
  0.003   0.009   0.001  -0.003  -0.002   0.003   0.008   0.001
 pseudopotential strength for first ion, spin component:           2
 -4.425  -0.002   0.024  -0.002  -0.000  -4.991  -0.002   0.023
 -0.002  -4.425   0.012   0.002  -0.021  -0.002  -4.991   0.012
  0.024   0.012  -4.099   0.012  -0.000   0.023   0.012  -4.677
 -0.002   0.002   0.012  -4.425   0.021  -0.002   0.002   0.012
 -0.000  -0.021  -0.000   0.021  -4.099  -0.000  -0.020  -0.000
 -4.991  -0.002   0.023  -0.002  -0.000  -5.514  -0.002   0.022
 -0.002  -4.991   0.012   0.002  -0.020  -0.002  -5.514   0.011
  0.023   0.012  -4.677   0.012  -0.000   0.022   0.011  -5.211
 -0.002   0.002   0.012  -4.991   0.020  -0.002   0.002   0.011
 -0.000  -0.020  -0.000   0.020  -4.676  -0.000  -0.019  -0.000
  0.003  -0.003  -0.000  -0.003   0.000   0.003  -0.003  -0.000
  0.006  -0.006  -0.000  -0.006   0.000   0.005  -0.005  -0.000
 -0.001   0.001  -0.002  -0.007  -0.003  -0.001   0.001  -0.002
 -0.007  -0.001  -0.003  -0.001  -0.000  -0.007  -0.001  -0.003
 -0.001  -0.007  -0.002   0.001   0.003  -0.001  -0.007  -0.002
 -0.002   0.002  -0.002  -0.009  -0.004  -0.002   0.002  -0.002
 -0.009  -0.002  -0.004  -0.002  -0.000  -0.009  -0.002  -0.004
 -0.002  -0.009  -0.002   0.002   0.004  -0.002  -0.009  -0.002
 total augmentation occupancy for first ion, spin component:           1
  1.737  -0.021   0.059  -0.021   0.000  -0.776   0.012  -0.029   0.012  -0.000  -0.023   0.001   0.002  -0.001   0.002  -0.001
 -0.021   1.737   0.030   0.021  -0.051   0.012  -0.776  -0.014  -0.012   0.025   0.023  -0.001  -0.002   0.002  -0.001   0.001
  0.059   0.030   3.015   0.030   0.000  -0.034  -0.017  -1.917  -0.017   0.000   0.000  -0.000  -0.005  -0.010  -0.005  -0.000
 -0.021   0.021   0.030   1.737   0.051   0.012  -0.012  -0.014  -0.776  -0.025   0.023  -0.001  -0.001   0.002  -0.002  -0.002
  0.000  -0.051   0.000   0.051   3.015  -0.000   0.030   0.000  -0.030  -1.917  -0.000   0.000  -0.009  -0.000   0.009  -0.000
 -0.776   0.012  -0.034   0.012  -0.000   1.263  -0.001   0.022  -0.001   0.000   0.009   0.002   0.000   0.007   0.000   0.000
  0.012  -0.776  -0.017  -0.012   0.030  -0.001   1.263   0.011   0.001  -0.019  -0.009  -0.002  -0.000   0.000   0.007  -0.000
 -0.029  -0.014  -1.917  -0.014   0.000   0.022   0.011   2.009   0.011   0.000   0.000   0.000   0.005   0.010   0.005   0.000
  0.012  -0.012  -0.017  -0.776  -0.030  -0.001   0.001   0.011   1.263   0.019  -0.009  -0.002   0.007   0.000  -0.000   0.001
 -0.000   0.025   0.000  -0.025  -1.917   0.000  -0.019   0.000   0.019   2.009   0.000  -0.000   0.008   0.000  -0.008   0.000
 -0.023   0.023   0.000   0.023  -0.000   0.009  -0.009  -0.000  -0.009   0.000   2.418  -0.269  -0.001   0.001  -0.001   0.000
  0.001  -0.001  -0.000  -0.001   0.000   0.002  -0.002   0.000  -0.002  -0.000  -0.269   0.036   0.000  -0.000   0.000  -0.000
  0.002  -0.002  -0.005  -0.001  -0.009   0.000  -0.000   0.005   0.007   0.008  -0.001   0.000   0.294  -0.002   0.002  -0.025
 -0.001   0.002  -0.010   0.002   0.000   0.007   0.000   0.010   0.000   0.000   0.001  -0.000  -0.002   0.294  -0.002   0.000
  0.002  -0.001  -0.005  -0.002   0.009   0.000   0.007   0.005  -0.000  -0.008  -0.001   0.000   0.002  -0.002   0.294  -0.000
 -0.001   0.001  -0.000  -0.002  -0.000   0.000  -0.000   0.000   0.001   0.000   0.000  -0.000  -0.025   0.000  -0.000   0.002
 -0.002  -0.001  -0.000  -0.001   0.000   0.001   0.000   0.000   0.000  -0.000  -0.000   0.000   0.000  -0.025   0.000   0.000
 -0.001  -0.002  -0.000   0.001   0.000   0.000   0.001   0.000  -0.000  -0.000   0.000  -0.000  -0.000   0.000  -0.025  -0.000
 total augmentation occupancy for first ion, spin component:           2
  0.573  -0.033   0.071  -0.033   0.000  -0.115  -0.007  -0.045  -0.007   0.000   0.009  -0.000  -0.023  -0.106  -0.023   0.001
 -0.033   0.573   0.035   0.033  -0.061  -0.007  -0.115  -0.022   0.007   0.039  -0.009   0.000   0.023  -0.023  -0.106  -0.001
  0.071   0.035   2.303   0.035   0.000  -0.025  -0.013  -1.008  -0.013   0.000   0.000  -0.000  -0.014  -0.028  -0.014   0.001
 -0.033   0.033   0.035   0.573   0.061  -0.007   0.007  -0.022  -0.115  -0.039  -0.009   0.000  -0.106  -0.023   0.023   0.003
  0.000  -0.061   0.000   0.061   2.303   0.000   0.022   0.000  -0.022  -1.008   0.000  -0.000  -0.024   0.000   0.024   0.001
 -0.115  -0.007  -0.025  -0.007   0.000  -0.162   0.024   0.007   0.024  -0.000  -0.000   0.002   0.011   0.064   0.011  -0.001
 -0.007  -0.115  -0.013   0.007   0.022   0.024  -0.162   0.004  -0.024  -0.006   0.000  -0.002  -0.011   0.011   0.064   0.001
 -0.045  -0.022  -1.008  -0.022   0.000   0.007   0.004   0.335   0.004   0.000   0.000  -0.000   0.006   0.012   0.006  -0.001
 -0.007   0.007  -0.013  -0.115  -0.022   0.024  -0.024   0.004  -0.162   0.006   0.000  -0.002   0.064   0.011  -0.011  -0.005
  0.000   0.039   0.000  -0.039  -1.008  -0.000  -0.006   0.000   0.006   0.335   0.000   0.000   0.011  -0.000  -0.011  -0.001
  0.009  -0.009   0.000  -0.009   0.000  -0.000   0.000   0.000   0.000   0.000  -0.132   0.064   0.001  -0.001   0.001  -0.001
 -0.000   0.000  -0.000   0.000  -0.000   0.002  -0.002  -0.000  -0.002   0.000   0.064  -0.012  -0.001   0.001  -0.001   0.000
 -0.023   0.023  -0.014  -0.106  -0.024   0.011  -0.011   0.006   0.064   0.011   0.001  -0.001   0.002  -0.000   0.000   0.004
 -0.106  -0.023  -0.028  -0.023   0.000   0.064   0.011   0.012   0.011   0.000  -0.001   0.001  -0.000   0.002  -0.000  -0.000
 -0.023  -0.106  -0.014   0.023   0.024   0.011   0.064   0.006  -0.011  -0.011   0.001  -0.001   0.000  -0.000   0.002   0.000
  0.001  -0.001   0.001   0.003   0.001  -0.001   0.001  -0.001  -0.005  -0.001  -0.001   0.000   0.004  -0.000   0.000  -0.001
  0.003   0.001   0.001   0.001  -0.000  -0.005  -0.001  -0.001  -0.001   0.000   0.001  -0.000  -0.000   0.004  -0.000   0.000
  0.001   0.003   0.001  -0.001  -0.001  -0.001  -0.005  -0.001   0.001   0.001  -0.001   0.000   0.000  -0.000   0.004  -0.000


------------------------ aborting loop because EDIFF is reached ----------------------------------------


 


 total charge     
 
# of ion       s       p       d       tot
------------------------------------------
    1        0.497   0.545   6.255   7.297
    2        0.496   0.544   6.222   7.262
    3        0.494   0.546   6.235   7.275
    4        0.494   0.546   6.235   7.275
    5        0.496   0.544   6.222   7.262
    6        0.497   0.545   6.255   7.297
--------------------------------------------------
tot          2.976   3.269  37.423  43.668
 


 magnetization (x)
 
# of ion       s       p       d       tot
------------------------------------------
    1        0.016   0.021   1.550   1.587
    2        0.021   0.030   2.071   2.122
    3        0.014   0.027   2.119   2.160
    4       -0.014  -0.027  -2.119  -2.160
    5       -0.021  -0.030  -2.071  -2.122
    6       -0.016  -0.021  -1.550  -1.587
--------------------------------------------------
tot         -0.000  -0.000   0.000   0.000
 
    CHARGE:  cpu time    0.0375: real time    0.0375
    FORLOC:  cpu time    0.0014: real time    0.0014
    FORNL :  cpu time    0.1252: real time    0.1255
    STRESS:  cpu time    0.1688: real time    0.1692
    FORCOR:  cpu time    0.0408: real time    0.0409
    FORHAR:  cpu time    0.0046: real time    0.0046
    MIXING:  cpu time    0.0023: real time    0.0023
    OFIELD:  cpu time    0.0000: real time    0.0000

  FORCE on cell =-STRESS in cart. coord.  units (eV):
  Direction    XX          YY          ZZ          XY          YZ          ZX
  --------------------------------------------------------------------------------------
  Alpha Z   366.67430   366.67430   366.67430
  Ewald   -1185.92762 -1185.92762 -1185.92762     0.00000     0.00000    -0.00000
  Hartree   189.10052   189.10052   189.10052    -0.28703     0.28703     0.28703
  E(xc)    -236.82864  -236.82865  -236.82865     0.03010    -0.03011    -0.03010
  Local     353.67965   353.67957   353.67957     0.76684    -0.76692    -0.76684
  n-local  -154.98280  -155.93642  -156.41107     2.20097     1.70179     0.95141
  augment   230.91761   230.91768   230.91768    -0.23237     0.23244     0.23237
  Kinetic   437.74231   437.94676   437.42845     1.21761     2.35792     1.41791
  Fock        0.00000     0.00000     0.00000     0.00000     0.00000     0.00000
  -------------------------------------------------------------------------------------
  Total      -0.45511    -0.45511    -0.45511    -0.73378     0.73378     0.73378
  in kB     -10.74596   -10.74596   -10.74596   -17.32561    17.32561    17.32561
  external pressure =      -10.75 kB  Pullay stress =        0.00 kB


 VOLUME and BASIS-vectors are now :
 -----------------------------------------------------------------------------
  energy-cutoff  :      520.00
  volume of cell :       67.86
      direct lattice vectors                 reciprocal lattice vectors
     2.828059000  0.000000000  2.828059000     0.117866471  0.117866471  0.235732941
    -2.828059000  2.828059000  0.000000000    -0.117866471  0.235732941  0.117866471
    -2.828059000 -2.828059000  2.828059000    -0.117866471 -0.117866471  0.117866471

  length of vectors
     3.999479393  3.999479393  4.898341875     0.288712711  0.288712711  0.204150716


 FORCES acting on ions
    electron-ion (+dipol)            ewald-force                    non-local-force                 convergence-correction
 -----------------------------------------------------------------------------------------------
   0.925E-01 0.925E-01 -.925E-01   0.749E-14 -.135E-14 0.125E-13   -.776E-01 -.776E-01 0.776E-01   0.816E-04 0.816E-04 -.816E-04
   0.154E+00 0.154E+00 -.154E+00   -.965E-06 0.397E-06 -.397E-06   -.123E+00 -.123E+00 0.123E+00   0.617E-05 0.617E-05 -.617E-05
   -.462E+00 -.462E+00 0.462E+00   -.965E-06 0.397E-06 -.397E-06   0.210E+00 0.210E+00 -.210E+00   0.562E-04 0.562E-04 -.562E-04
   0.462E+00 0.462E+00 -.462E+00   0.965E-06 -.397E-06 0.397E-06   -.210E+00 -.210E+00 0.210E+00   -.562E-04 -.562E-04 0.562E-04
   -.154E+00 -.154E+00 0.154E+00   0.965E-06 -.397E-06 0.397E-06   0.123E+00 0.123E+00 -.123E+00   -.617E-05 -.617E-05 0.617E-05
   -.925E-01 -.925E-01 0.925E-01   -.213E-13 -.213E-13 -.106E-14   0.776E-01 0.776E-01 -.776E-01   -.816E-04 -.816E-04 0.816E-04
 -----------------------------------------------------------------------------------------------
   0.310E-07 0.115E-06 -.115E-06   0.420E-15 -.129E-14 -.276E-14   0.833E-16 0.971E-16 -.971E-16   0.265E-14 -.153E-11 0.152E-11
 
 
 POSITION                                       TOTAL-FORCE (eV/Angst)
 -----------------------------------------------------------------------------------
      0.00000      0.00000      0.00000         0.015073      0.015073     -0.015073
      0.00000      0.00000      2.82806         0.030609      0.030609     -0.030609
     -1.41403     -1.41403      4.24209        -0.251955     -0.251955      0.251955
     -2.82806      0.00000      2.82806         0.251955      0.251955     -0.251955
     -1.41403      1.41403      1.41403        -0.030609     -0.030609      0.030609
     -1.41403     -1.41403      1.41403        -0.015073     -0.015073      0.015073
 -----------------------------------------------------------------------------------
    total drift:                                0.000000      0.000000     -0.000000


--------------------------------------------------------------------------------------------------------



  FREE ENERGIE OF THE ION-ELECTRON SYSTEM (eV)
  ---------------------------------------------------
  free  energy   TOTEN  =       -48.09112795 eV

  energy  without entropy=      -48.09112795  energy(sigma->0) =      -48.09112795
 


--------------------------------------------------------------------------------------------------------


    POTLOK:  cpu time    0.6889: real time    0.6906


--------------------------------------------------------------------------------------------------------


     LOOP+:  cpu time   27.2884: real time   27.3999
    4ORBIT:  cpu time    0.0000: real time    0.0000
 


 total charge     
 
# of ion       s       p       d       tot
------------------------------------------
    1        0.497   0.545   6.255   7.297
    2        0.496   0.544   6.222   7.262
    3        0.494   0.546   6.235   7.275
    4        0.494   0.546   6.235   7.275
    5        0.496   0.544   6.222   7.262
    6        0.497   0.545   6.255   7.297
--------------------------------------------------
tot          2.976   3.269  37.423  43.668
 


 magnetization (x)
 
# of ion       s       p       d       tot
------------------------------------------
    1        0.016   0.021   1.550   1.587
    2        0.021   0.030   2.071   2.122
    3        0.014   0.027   2.119   2.160
    4       -0.014  -0.027  -2.119  -2.160
    5       -0.021  -0.030  -2.071  -2.122
    6       -0.016  -0.021  -1.550  -1.587
--------------------------------------------------
tot         -0.000  -0.000   0.000   0.000
 
 BZINTS: Fermi energy:  6.174972; 48.000000 electrons
         Band energy: 174.220629;  BLOECHL correction: -0.086688

 total amount of memory used by VASP MPI-rank0    37443. kBytes
=======================================================================

   base      :      30000. kBytes
   nonl-proj :        659. kBytes
   fftplans  :       1426. kBytes
   grid      :       3240. kBytes
   one-center:         62. kBytes
   wavefun   :       2056. kBytes
 
  
  
 General timing and accounting informations for this job:
 ========================================================
  
                  Total CPU time used (sec):       28.527
                            User time (sec):       28.206
                          System time (sec):        0.321
                         Elapsed time (sec):       28.682
  
                   Maximum memory used (kb):       57908.
                   Average memory used (kb):           0.
  
                          Minor page faults:        25220
                          Major page faults:            0
                 Voluntary context switches:           98
