=========================================
SLURM_JOB_ID = 63456905
SLURM_JOB_NODELIST = lnode56
SLURM_GPUS = 
SLURM_CPUS_ON_NODE = 8
SLURM_JOB_PARTITION = lenovo
SLURM_TASK_PID = 2501731
CUDA_VISIBLE_DEVICES = 
==========================================
 running on    8 total cores
 distrk:  each k-point on    8 cores,    1 groups
 distr:  one band on    4 cores,    2 groups
 using from now: INCAR     
 vasp.5.4.4.18Apr17-6-g9f103f2a35 (build Apr 28 2018 00:24:27) complex          
  
 POSCAR found type information on POSCAR  Eu O 
 POSCAR found :  2 types and       2 ions
 scaLAPACK will be used

 ----------------------------------------------------------------------------- 
|                                                                             |
|  ADVICE TO THIS USER RUNNING 'VASP/VAMP'   (HEAR YOUR MASTER'S VOICE ...):  |
|                                                                             |
|      You have a (more or less) 'small supercell' and for smaller cells      |
|      it is recommended  to use the reciprocal-space projection scheme!      |
|      The real space optimization is not  efficient for small cells and it   |
|      is also less accurate ...                                              |
|      Therefore set LREAL=.FALSE. in the  INCAR file                         |
|                                                                             |
 ----------------------------------------------------------------------------- 

 LDA part: xc-table for Pade appr. of Perdew
 POSCAR, INCAR and KPOINTS ok, starting setup
 FFT: planning ...
 WAVECAR not read
 entering main loop
       N       E                     dE             d eps       ncg     rms          rms(c)
DAV:   1     0.122199939710E+03    0.12220E+03   -0.87671E+03  8584   0.214E+03
DAV:   2    -0.873524616266E+01   -0.13094E+03   -0.11692E+03  7540   0.277E+02
DAV:   3    -0.198620038866E+02   -0.11127E+02   -0.10680E+02  7852   0.831E+01
DAV:   4    -0.204512176274E+02   -0.58921E+00   -0.57657E+00 10960   0.170E+01
DAV:   5    -0.204714413045E+02   -0.20224E-01   -0.20133E-01  9436   0.241E+00    0.184E+01
DAV:   6    -0.256368347414E+02   -0.51654E+01   -0.99872E+01 10304   0.107E+02    0.272E+01
DAV:   7    -0.209683964317E+02    0.46684E+01   -0.21046E+01  8624   0.800E+01    0.100E+01
DAV:   8    -0.209601221164E+02    0.82743E-02   -0.13134E+00  9940   0.994E+00    0.474E+00
DAV:   9    -0.209327901288E+02    0.27332E-01   -0.17297E+00 10632   0.114E+01    0.266E+00
DAV:  10    -0.208756344927E+02    0.57156E-01   -0.24149E-01  9468   0.444E+00    0.929E-01
DAV:  11    -0.208726907560E+02    0.29437E-02   -0.14552E-02  9984   0.118E+00    0.766E-01
DAV:  12    -0.208724344342E+02    0.25632E-03   -0.24834E-02 10172   0.147E+00    0.378E-01
DAV:  13    -0.208726769127E+02   -0.24248E-03   -0.22009E-03  9432   0.318E-01    0.182E-01
DAV:  14    -0.208727814228E+02   -0.10451E-03   -0.13857E-03 10308   0.367E-01    0.799E-02
DAV:  15    -0.208727369100E+02    0.44513E-04   -0.20805E-04  9960   0.118E-01    0.404E-02
DAV:  16    -0.208727482833E+02   -0.11373E-04   -0.15121E-05  9892   0.286E-02    0.134E-02
DAV:  17    -0.208727497564E+02   -0.14731E-05   -0.25054E-06 11380   0.111E-02    0.432E-03
DAV:  18    -0.208727487634E+02    0.99293E-06   -0.39227E-07  8560   0.389E-03    0.451E-03
DAV:  19    -0.208727474423E+02    0.13211E-05   -0.16441E-07  5560   0.437E-03    0.161E-03
DAV:  20    -0.208727484949E+02   -0.10526E-05   -0.64681E-08  4124   0.294E-03    0.376E-04
DAV:  21    -0.208727483227E+02    0.17227E-06   -0.32240E-08  3780   0.164E-03    0.339E-04
DAV:  22    -0.208727481724E+02    0.15028E-06   -0.14825E-08  3688   0.109E-03    0.165E-04
DAV:  23    -0.208727481143E+02    0.58047E-07   -0.48725E-09  3644   0.792E-04
   1 F= -.20872748E+02 E0= -.20872748E+02  d E =0.000000E+00  mag=     6.9930
