       N       E                     dE             d eps       ncg     rms          rms(c)
DAV:   1     0.116719529943E+04    0.11672E+04   -0.31499E+04 37936   0.314E+03
DAV:   2     0.303583254324E+03   -0.86361E+03   -0.78758E+03 45808   0.632E+02
DAV:   3    -0.127380773097E+02   -0.31632E+03   -0.30946E+03 50888   0.334E+02
DAV:   4    -0.596648359596E+02   -0.46927E+02   -0.46048E+02 60776   0.125E+02
DAV:   5    -0.639110571504E+02   -0.42462E+01   -0.40937E+01 66216   0.396E+01    0.274E+01
DAV:   6    -0.648307559100E+02   -0.91970E+00   -0.10465E+02 49384   0.106E+02    0.325E+01
DAV:   7    -0.723605994190E+02   -0.75298E+01   -0.34834E+01 48400   0.594E+01    0.159E+01
DAV:   8    -0.727247250663E+02   -0.36413E+00   -0.11212E+01 47072   0.570E+01    0.730E+00
DAV:   9    -0.746983859326E+02   -0.19737E+01   -0.10865E+01 60360   0.212E+01    0.753E+00
DAV:  10    -0.748968625569E+02   -0.19848E+00   -0.27450E+00 55056   0.150E+01    0.694E+00
DAV:  11    -0.748648337986E+02    0.32029E-01   -0.93594E-01 59056   0.846E+00    0.442E+00
DAV:  12    -0.749049095542E+02   -0.40076E-01   -0.32840E-01 55576   0.497E+00    0.217E+00
DAV:  13    -0.749364164520E+02   -0.31507E-01   -0.29110E-01 59616   0.390E+00    0.894E-01
DAV:  14    -0.749682019177E+02   -0.31785E-01   -0.53011E-02 60488   0.141E+00    0.460E-01
DAV:  15    -0.749822048016E+02   -0.14003E-01   -0.28182E-02 56192   0.105E+00    0.415E-01
DAV:  16    -0.749836582007E+02   -0.14534E-02   -0.75683E-03 64512   0.646E-01    0.537E-01
DAV:  17    -0.749821963777E+02    0.14618E-02   -0.19467E-03 61968   0.435E-01    0.200E-01
DAV:  18    -0.749819355796E+02    0.26080E-03   -0.82331E-04 61248   0.268E-01    0.927E-02
DAV:  19    -0.749818535793E+02    0.82000E-04   -0.30237E-04 66064   0.136E-01    0.324E-02
DAV:  20    -0.749818275508E+02    0.26028E-04   -0.91471E-05 64440   0.664E-02    0.227E-02
DAV:  21    -0.749818377248E+02   -0.10174E-04   -0.14347E-05 44680   0.445E-02    0.203E-02
DAV:  22    -0.749818323990E+02    0.53257E-05   -0.21421E-06 28640   0.251E-02    0.163E-02
DAV:  23    -0.749818315540E+02    0.84503E-06   -0.11122E-05 41976   0.478E-02    0.662E-03
DAV:  24    -0.749818367565E+02   -0.52025E-05   -0.17087E-05 31376   0.207E-02    0.241E-02
DAV:  25    -0.749818435298E+02   -0.67733E-05   -0.54141E-06 27360   0.369E-02    0.242E-02
DAV:  26    -0.749818465854E+02   -0.30556E-05   -0.91293E-07 24584   0.154E-02    0.277E-02
DAV:  27    -0.749818385200E+02    0.80654E-05   -0.25423E-06 27944   0.374E-02    0.180E-02
DAV:  28    -0.749818342070E+02    0.43130E-05   -0.78244E-06 37744   0.427E-02    0.470E-03
DAV:  29    -0.749818350558E+02   -0.84882E-06   -0.23695E-06 26928   0.122E-02
   1 F= -.74981835E+02 E0= -.74981835E+02  d E =0.000000E+00  mag=     0.0002
