 vasp.5.4.4.18Apr17-6-g9f103f2a35 (build Apr 28 2018 00:24:27) complex          
  
 executed on             LinuxIFC date 2021.03.19  19:37:15
 running on    8 total cores
 distrk:  each k-point on    8 cores,    1 groups
 distr:  one band on NCORES_PER_BAND=   1 cores,    8 groups


--------------------------------------------------------------------------------------------------------


 INCAR:
 POTCAR:    PAW_PBE Ni 02Aug2007                  

 ----------------------------------------------------------------------------- 
|                                                                             |
|           W    W    AA    RRRRR   N    N  II  N    N   GGGG   !!!           |
|           W    W   A  A   R    R  NN   N  II  NN   N  G    G  !!!           |
|           W    W  A    A  R    R  N N  N  II  N N  N  G       !!!           |
|           W WW W  AAAAAA  RRRRR   N  N N  II  N  N N  G  GGG   !            |
|           WW  WW  A    A  R   R   N   NN  II  N   NN  G    G                |
|           W    W  A    A  R    R  N    N  II  N    N   GGGG   !!!           |
|                                                                             |
|      For optimal performance we recommend to set                            |
|        NCORE= 4 - approx SQRT( number of cores)                             |
|      NCORE specifies how many cores store one orbital (NPAR=cpu/NCORE).     |
|      This setting can  greatly improve the performance of VASP for DFT.     |
|      The default,   NCORE=1            might be grossly inefficient         |
|      on modern multi-core architectures or massively parallel machines.     |
|      Do your own testing !!!!                                               |
|      Unfortunately you need to use the default for GW and RPA calculations. |
|      (for HF NCORE is supported but not extensively tested yet)             |
|                                                                             |
 ----------------------------------------------------------------------------- 

 POTCAR:    PAW_PBE Ni 02Aug2007                  
   SHA256 =  0534bc51ca8003dfef23f56753fef9fdd3e22eac8d719fccacb59f3e6b7a69c7 Ni
   COPYR  = (c) Copyright 02Aug2007 Georg Kresse                                
   COPYR  = This file is part of the software VASP. Any use, copying, and all ot
   COPYR  = If you do not have a valid VASP license, you may not use, copy or di
   VRHFIN =Ni:                                                                  
   LEXCH  = PE                                                                  
   EATOM  =  1077.6739 eV,   79.2068 Ry                                         
                                                                                
   TITEL  = PAW_PBE Ni 02Aug2007                                                
   LULTRA =        F    use ultrasoft PP ?                                      
   IUNSCR =        1    unscreen: 0-lin 1-nonlin 2-no                           
   RPACOR =    2.000    partial core radius                                     
   POMASS =   58.690; ZVAL   =   10.000    mass and valenz                      
   RCORE  =    2.300    outmost cutoff radius                                   
   RWIGS  =    2.430; RWIGS  =    1.286    wigner-seitz radius (au A)           
   ENMAX  =  269.532; ENMIN  =  202.149 eV                                      
   RCLOC  =    1.201    cutoff for local pot                                    
   LCOR   =        T    correct aug charges                                     
   LPAW   =        T    paw PP                                                  
   EAUG   =  544.565                                                            
   DEXC   =    0.000                                                            
   RMAX   =    2.357    core radius for proj-oper                               
   RAUG   =    1.300    factor for augmentation sphere                          
   RDEP   =    2.390    radius for radial grids                                 
   RDEPT  =    1.838    core radius for aug-charge                              
                                                                                
   Atomic configuration                                                         
    9 entries                                                                   
     n  l   j            E        occ.                                          
     1  0  0.50     -8206.4253   2.0000                                         
     2  0  0.50      -976.1748   2.0000                                         
     2  1  1.50      -839.0571   6.0000                                         
     3  0  0.50      -105.9991   2.0000                                         
     3  1  1.50       -66.4603   6.0000                                         
     3  2  2.50        -4.6458   9.0000                                         
     4  0  0.50        -4.4926   1.0000                                         
     4  1  1.50        -4.0817   0.0000                                         
     4  3  2.50        -1.3606   0.0000                                         
   Description                                                                  
     l       E           TYP  RCUT    TYP  RCUT                                 
     2     -4.6457903     23  2.300                                             
     2     -6.0063729     23  2.300                                             
     0     -4.4925590     23  2.300                                             
     0      5.0102601     23  2.300                                             
     1     -2.7211652     23  2.300                                             
     1     16.5183231     23  2.300                                             
  local pseudopotential read in
  partial core-charges read in
  partial kinetic energy density read in
  atomic valenz-charges read in
  non local Contribution for L=           2  read in
    real space projection operators read in
  non local Contribution for L=           2  read in
    real space projection operators read in
  non local Contribution for L=           0  read in
    real space projection operators read in
  non local Contribution for L=           0  read in
    real space projection operators read in
  non local Contribution for L=           1  read in
    real space projection operators read in
  non local Contribution for L=           1  read in
    real space projection operators read in
    PAW grid and wavefunctions read in
 
   number of l-projection  operators is LMAX  =           6
   number of lm-projection operators is LMMAX =          18
 
  PAW_PBE Ni 02Aug2007                  :
 energy of atom  1       EATOM=-1077.6739
 kinetic energy error for atom=    0.0030 (will be added to EATOM!!)
 
 
 POSCAR: Ni1 str #: 9                            
  positions in direct lattice
  No initial velocities read in
 exchange correlation table for  LEXCH =        8
   RHO(1)=    0.500       N(1)  =     2000
   RHO(2)=  100.500       N(2)  =     4000
 


--------------------------------------------------------------------------------------------------------


 ion  position               nearest neighbor table
   1  0.000  0.000  0.000-   2 2.48   6 2.48   5 2.48   3 2.48   2 2.48   6 2.48   6 2.48   2 2.48
                             2 2.48   6 2.48
   2  0.500  0.500  0.167-   3 2.48   1 2.48   4 2.48   6 2.48   3 2.48   3 2.48   1 2.48   1 2.48
                             3 2.48   1 2.48
   3  0.000  0.000  0.333-   2 2.48   4 2.48   1 2.48   5 2.48   2 2.48   2 2.48   4 2.48   4 2.48
                             2 2.48   4 2.48
   4  0.500  0.500  0.500-   5 2.48   3 2.48   6 2.48   2 2.48   3 2.48   5 2.48   3 2.48   5 2.48
                             3 2.48   5 2.48
   5  0.000  0.000  0.667-   6 2.48   4 2.48   1 2.48   3 2.48   6 2.48   6 2.48   4 2.48   4 2.48
                             6 2.48   4 2.48
   6  0.500  0.500  0.833-   5 2.48   1 2.48   4 2.48   2 2.48   5 2.48   5 2.48   1 2.48   1 2.48
                             5 2.48   1 2.48
 
  LATTYP: Found a simple orthorhombic cell.
 ALAT       =     2.4767001000
 B/A-ratio  =     1.4142135446
 C/A-ratio  =     2.9999999375
  
  Lattice vectors:
  
 A1 = (   2.4767001000,   0.0000000000,   0.0000000000)
 A2 = (  -0.0000001000,   2.8598469300,   2.0222171000)
 A3 = (   0.0000000000,  -4.2897704100,   6.0666513000)


Analysis of symmetry for initial positions (statically):
=====================================================================
 Subroutine PRICEL returns following result:
 
  LATTYP: Found a face centered cubic cell.
 ALAT       =     3.5025828274
  
  Lattice vectors:
  
 A1 = (  -1.2383500000,  -2.1448851971,  -0.0000000040)
 A2 = (  -2.4767001000,   0.0000000043,  -0.0000000061)
 A3 = (  -1.2383500000,  -0.7149617286,  -2.0222171020)
 
   6 primitive cells build up your supercell.
 

 Routine SETGRP: Setting up the symmetry group for a 
 simple orthorhombic supercell.


 Subroutine GETGRP returns: Found  8 space group operations
 (whereof  8 operations were pure point group operations)
 out of a pool of  8 trial point group operations.


The static configuration has the point symmetry D_2h.


Analysis of symmetry for dynamics (positions and initial velocities):
=====================================================================
 Subroutine PRICEL returns following result:
 
  LATTYP: Found a face centered cubic cell.
 ALAT       =     3.5025828274
  
  Lattice vectors:
  
 A1 = (  -1.2383500000,  -2.1448851971,  -0.0000000040)
 A2 = (  -2.4767001000,   0.0000000043,  -0.0000000061)
 A3 = (  -1.2383500000,  -0.7149617286,  -2.0222171020)
 
   6 primitive cells build up your supercell.
 

 Routine SETGRP: Setting up the symmetry group for a 
 simple orthorhombic supercell.


 Subroutine GETGRP returns: Found  8 space group operations
 (whereof  8 operations were pure point group operations)
 out of a pool of  8 trial point group operations.


The dynamic configuration has the point symmetry D_2h.


Analysis of structural, dynamic, and magnetic symmetry:
=====================================================================
 Subroutine PRICEL returns following result:
 
  LATTYP: Found a body centered orthorhombic cell.
 ALAT       =     2.4767001000
 B/A-ratio  =     1.4142135446
 C/A-ratio  =     2.9999999375
  
  Lattice vectors:
  
 A1 = (   1.2383500000,   3.5748086700,  -2.0222171000)
 A2 = (  -1.2383500000,   0.7149617400,  -4.0444342000)
 A3 = (  -1.2383501000,  -0.7149617400,   4.0444342000)
 
   2 primitive cells build up your supercell.
 

 Routine SETGRP: Setting up the symmetry group for a 
 simple orthorhombic supercell.


 Subroutine GETGRP returns: Found  8 space group operations
 (whereof  4 operations were pure point group operations)
 out of a pool of  8 trial point group operations.


The magnetic configuration has the point symmetry C_2v.
 The point group associated with its full space group is D_2h.


 Subroutine INISYM returns: Found  8 space group operations
 (whereof  4 operations are pure point group operations),
 and found     2 'primitive' translations

 
 
 KPOINTS: k-points                                

Automatic generation of k-mesh.
Space group operators:
 irot       det(A)        alpha          n_x          n_y          n_z        tau_x        tau_y        tau_z
    1     1.000000     0.000000     1.000000     0.000000     0.000000     0.000000     0.000000     0.000000
    2     1.000000   180.000000     0.000000    -0.577350     0.816497     0.000000     0.000000     0.000000
    3    -1.000000   180.000000     0.000000    -0.816497    -0.577350     0.000000     0.000000     0.000000
    4    -1.000000   180.000000     1.000000     0.000000     0.000000     0.000000     0.000000     0.000000
    5    -1.000000     0.000000     1.000000     0.000000     0.000000     0.000000     0.000000    -0.666667
    6    -1.000000   180.000000     0.000000    -0.577350     0.816497     0.000000     0.000000    -0.666667
    7     1.000000   180.000000     0.000000    -0.816497    -0.577350     0.000000     0.000000    -0.666667
    8     1.000000   180.000000     1.000000     0.000000     0.000000     0.000000     0.000000    -0.666667
 
 Subroutine IBZKPT returns following result:
 ===========================================
 
 Found    216 irreducible k-points:
 
 Following reciprocal coordinates:
            Coordinates               Weight
  0.000000  0.000000  0.000000      1.000000
  0.090909 -0.000000 -0.000000      2.000000
  0.181818 -0.000000 -0.000000      2.000000
  0.272727 -0.000000 -0.000000      2.000000
  0.363636 -0.000000 -0.000000      2.000000
  0.454545 -0.000000 -0.000000      2.000000
  0.000000  0.090909 -0.000000      2.000000
  0.090909  0.090909  0.000000      4.000000
  0.181818  0.090909 -0.000000      4.000000
  0.272727  0.090909 -0.000000      4.000000
  0.363636  0.090909 -0.000000      4.000000
  0.454545  0.090909 -0.000000      4.000000
  0.000000  0.181818 -0.000000      2.000000
  0.090909  0.181818  0.000000      4.000000
  0.181818  0.181818  0.000000      4.000000
  0.272727  0.181818  0.000000      4.000000
  0.363636  0.181818 -0.000000      4.000000
  0.454545  0.181818 -0.000000      4.000000
  0.000000  0.272727 -0.000000      2.000000
  0.090909  0.272727  0.000000      4.000000
  0.181818  0.272727 -0.000000      4.000000
  0.272727  0.272727 -0.000000      4.000000
  0.363636  0.272727 -0.000000      4.000000
  0.454545  0.272727  0.000000      4.000000
  0.000000  0.363636 -0.000000      2.000000
  0.090909  0.363636  0.000000      4.000000
  0.181818  0.363636  0.000000      4.000000
  0.272727  0.363636 -0.000000      4.000000
  0.363636  0.363636  0.000000      4.000000
  0.454545  0.363636  0.000000      4.000000
  0.000000  0.454545 -0.000000      2.000000
  0.090909  0.454545 -0.000000      4.000000
  0.181818  0.454545  0.000000      4.000000
  0.272727  0.454545 -0.000000      4.000000
  0.363636  0.454545 -0.000000      4.000000
  0.454545  0.454545  0.000000      4.000000
  0.000000 -0.000000  0.090909      2.000000
  0.090909  0.000000  0.090909      4.000000
  0.181818  0.000000  0.090909      4.000000
  0.272727 -0.000000  0.090909      4.000000
  0.363636 -0.000000  0.090909      4.000000
  0.454545 -0.000000  0.090909      4.000000
  0.000000  0.090909  0.090909      4.000000
  0.090909  0.090909  0.090909      8.000000
  0.181818  0.090909  0.090909      8.000000
  0.272727  0.090909  0.090909      8.000000
  0.363636  0.090909  0.090909      8.000000
  0.454545  0.090909  0.090909      8.000000
  0.000000  0.181818  0.090909      4.000000
  0.090909  0.181818  0.090909      8.000000
  0.181818  0.181818  0.090909      8.000000
  0.272727  0.181818  0.090909      8.000000
  0.363636  0.181818  0.090909      8.000000
  0.454545  0.181818  0.090909      8.000000
  0.000000  0.272727  0.090909      4.000000
  0.090909  0.272727  0.090909      8.000000
  0.181818  0.272727  0.090909      8.000000
  0.272727  0.272727  0.090909      8.000000
  0.363636  0.272727  0.090909      8.000000
  0.454545  0.272727  0.090909      8.000000
  0.000000  0.363636  0.090909      4.000000
  0.090909  0.363636  0.090909      8.000000
  0.181818  0.363636  0.090909      8.000000
  0.272727  0.363636  0.090909      8.000000
  0.363636  0.363636  0.090909      8.000000
  0.454545  0.363636  0.090909      8.000000
  0.000000  0.454545  0.090909      4.000000
  0.090909  0.454545  0.090909      8.000000
  0.181818  0.454545  0.090909      8.000000
  0.272727  0.454545  0.090909      8.000000
  0.363636  0.454545  0.090909      8.000000
  0.454545  0.454545  0.090909      8.000000
  0.000000 -0.000000  0.181818      2.000000
  0.090909 -0.000000  0.181818      4.000000
  0.181818  0.000000  0.181818      4.000000
  0.272727 -0.000000  0.181818      4.000000
  0.363636  0.000000  0.181818      4.000000
  0.454545 -0.000000  0.181818      4.000000
  0.000000  0.090909  0.181818      4.000000
  0.090909  0.090909  0.181818      8.000000
  0.181818  0.090909  0.181818      8.000000
  0.272727  0.090909  0.181818      8.000000
  0.363636  0.090909  0.181818      8.000000
  0.454545  0.090909  0.181818      8.000000
  0.000000  0.181818  0.181818      4.000000
  0.090909  0.181818  0.181818      8.000000
  0.181818  0.181818  0.181818      8.000000
  0.272727  0.181818  0.181818      8.000000
  0.363636  0.181818  0.181818      8.000000
  0.454545  0.181818  0.181818      8.000000
  0.000000  0.272727  0.181818      4.000000
  0.090909  0.272727  0.181818      8.000000
  0.181818  0.272727  0.181818      8.000000
  0.272727  0.272727  0.181818      8.000000
  0.363636  0.272727  0.181818      8.000000
  0.454545  0.272727  0.181818      8.000000
  0.000000  0.363636  0.181818      4.000000
  0.090909  0.363636  0.181818      8.000000
  0.181818  0.363636  0.181818      8.000000
  0.272727  0.363636  0.181818      8.000000
  0.363636  0.363636  0.181818      8.000000
  0.454545  0.363636  0.181818      8.000000
  0.000000  0.454545  0.181818      4.000000
  0.090909  0.454545  0.181818      8.000000
  0.181818  0.454545  0.181818      8.000000
  0.272727  0.454545  0.181818      8.000000
  0.363636  0.454545  0.181818      8.000000
  0.454545  0.454545  0.181818      8.000000
  0.000000 -0.000000  0.272727      2.000000
  0.090909 -0.000000  0.272727      4.000000
  0.181818 -0.000000  0.272727      4.000000
  0.272727 -0.000000  0.272727      4.000000
  0.363636  0.000000  0.272727      4.000000
  0.454545 -0.000000  0.272727      4.000000
  0.000000  0.090909  0.272727      4.000000
  0.090909  0.090909  0.272727      8.000000
  0.181818  0.090909  0.272727      8.000000
  0.272727  0.090909  0.272727      8.000000
  0.363636  0.090909  0.272727      8.000000
  0.454545  0.090909  0.272727      8.000000
  0.000000  0.181818  0.272727      4.000000
  0.090909  0.181818  0.272727      8.000000
  0.181818  0.181818  0.272727      8.000000
  0.272727  0.181818  0.272727      8.000000
  0.363636  0.181818  0.272727      8.000000
  0.454545  0.181818  0.272727      8.000000
  0.000000  0.272727  0.272727      4.000000
  0.090909  0.272727  0.272727      8.000000
  0.181818  0.272727  0.272727      8.000000
  0.272727  0.272727  0.272727      8.000000
  0.363636  0.272727  0.272727      8.000000
  0.454545  0.272727  0.272727      8.000000
  0.000000  0.363636  0.272727      4.000000
  0.090909  0.363636  0.272727      8.000000
  0.181818  0.363636  0.272727      8.000000
  0.272727  0.363636  0.272727      8.000000
  0.363636  0.363636  0.272727      8.000000
  0.454545  0.363636  0.272727      8.000000
  0.000000  0.454545  0.272727      4.000000
  0.090909  0.454545  0.272727      8.000000
  0.181818  0.454545  0.272727      8.000000
  0.272727  0.454545  0.272727      8.000000
  0.363636  0.454545  0.272727      8.000000
  0.454545  0.454545  0.272727      8.000000
  0.000000 -0.000000  0.363636      2.000000
  0.090909 -0.000000  0.363636      4.000000
  0.181818 -0.000000  0.363636      4.000000
  0.272727 -0.000000  0.363636      4.000000
  0.363636  0.000000  0.363636      4.000000
  0.454545  0.000000  0.363636      4.000000
  0.000000  0.090909  0.363636      4.000000
  0.090909  0.090909  0.363636      8.000000
  0.181818  0.090909  0.363636      8.000000
  0.272727  0.090909  0.363636      8.000000
  0.363636  0.090909  0.363636      8.000000
  0.454545  0.090909  0.363636      8.000000
  0.000000  0.181818  0.363636      4.000000
  0.090909  0.181818  0.363636      8.000000
  0.181818  0.181818  0.363636      8.000000
  0.272727  0.181818  0.363636      8.000000
  0.363636  0.181818  0.363636      8.000000
  0.454545  0.181818  0.363636      8.000000
  0.000000  0.272727  0.363636      4.000000
  0.090909  0.272727  0.363636      8.000000
  0.181818  0.272727  0.363636      8.000000
  0.272727  0.272727  0.363636      8.000000
  0.363636  0.272727  0.363636      8.000000
  0.454545  0.272727  0.363636      8.000000
  0.000000  0.363636  0.363636      4.000000
  0.090909  0.363636  0.363636      8.000000
  0.181818  0.363636  0.363636      8.000000
  0.272727  0.363636  0.363636      8.000000
  0.363636  0.363636  0.363636      8.000000
  0.454545  0.363636  0.363636      8.000000
  0.000000  0.454545  0.363636      4.000000
  0.090909  0.454545  0.363636      8.000000
  0.181818  0.454545  0.363636      8.000000
  0.272727  0.454545  0.363636      8.000000
  0.363636  0.454545  0.363636      8.000000
  0.454545  0.454545  0.363636      8.000000
  0.000000 -0.000000  0.454545      2.000000
  0.090909 -0.000000  0.454545      4.000000
  0.181818 -0.000000  0.454545      4.000000
  0.272727 -0.000000  0.454545      4.000000
  0.363636  0.000000  0.454545      4.000000
  0.454545 -0.000000  0.454545      4.000000
  0.000000  0.090909  0.454545      4.000000
  0.090909  0.090909  0.454545      8.000000
  0.181818  0.090909  0.454545      8.000000
  0.272727  0.090909  0.454545      8.000000
  0.363636  0.090909  0.454545      8.000000
  0.454545  0.090909  0.454545      8.000000
  0.000000  0.181818  0.454545      4.000000
  0.090909  0.181818  0.454545      8.000000
  0.181818  0.181818  0.454545      8.000000
  0.272727  0.181818  0.454545      8.000000
  0.363636  0.181818  0.454545      8.000000
  0.454545  0.181818  0.454545      8.000000
  0.000000  0.272727  0.454545      4.000000
  0.090909  0.272727  0.454545      8.000000
  0.181818  0.272727  0.454545      8.000000
  0.272727  0.272727  0.454545      8.000000
  0.363636  0.272727  0.454545      8.000000
  0.454545  0.272727  0.454545      8.000000
  0.000000  0.363636  0.454545      4.000000
  0.090909  0.363636  0.454545      8.000000
  0.181818  0.363636  0.454545      8.000000
  0.272727  0.363636  0.454545      8.000000
  0.363636  0.363636  0.454545      8.000000
  0.454545  0.363636  0.454545      8.000000
  0.000000  0.454545  0.454545      4.000000
  0.090909  0.454545  0.454545      8.000000
  0.181818  0.454545  0.454545      8.000000
  0.272727  0.454545  0.454545      8.000000
  0.363636  0.454545  0.454545      8.000000
  0.454545  0.454545  0.454545      8.000000
 
 Following cartesian coordinates:
            Coordinates               Weight
  0.000000  0.000000  0.000000      1.000000
  0.036706  0.000000  0.000000      2.000000
  0.073411  0.000000  0.000000      2.000000
  0.110117  0.000000  0.000000      2.000000
  0.146823  0.000000  0.000000      2.000000
  0.183529  0.000000  0.000000      2.000000
  0.000000  0.021192  0.014985      2.000000
  0.036706  0.021192  0.014985      4.000000
  0.073411  0.021192  0.014985      4.000000
  0.110117  0.021192  0.014985      4.000000
  0.146823  0.021192  0.014985      4.000000
  0.183529  0.021192  0.014985      4.000000
  0.000000  0.042384  0.029970      2.000000
  0.036706  0.042384  0.029970      4.000000
  0.073411  0.042384  0.029970      4.000000
  0.110117  0.042384  0.029970      4.000000
  0.146823  0.042384  0.029970      4.000000
  0.183529  0.042384  0.029970      4.000000
  0.000000  0.063576  0.044955      2.000000
  0.036706  0.063576  0.044955      4.000000
  0.073411  0.063576  0.044955      4.000000
  0.110117  0.063576  0.044955      4.000000
  0.146823  0.063576  0.044955      4.000000
  0.183529  0.063576  0.044955      4.000000
  0.000000  0.084768  0.059940      2.000000
  0.036706  0.084768  0.059940      4.000000
  0.073411  0.084768  0.059940      4.000000
  0.110117  0.084768  0.059940      4.000000
  0.146823  0.084768  0.059940      4.000000
  0.183529  0.084768  0.059940      4.000000
  0.000000  0.105960  0.074925      2.000000
  0.036706  0.105960  0.074925      4.000000
  0.073411  0.105960  0.074925      4.000000
  0.110117  0.105960  0.074925      4.000000
  0.146823  0.105960  0.074925      4.000000
  0.183529  0.105960  0.074925      4.000000
  0.000000 -0.007064  0.009990      2.000000
  0.036706 -0.007064  0.009990      4.000000
  0.073411 -0.007064  0.009990      4.000000
  0.110117 -0.007064  0.009990      4.000000
  0.146823 -0.007064  0.009990      4.000000
  0.183529 -0.007064  0.009990      4.000000
  0.000000  0.014128  0.024975      4.000000
  0.036706  0.014128  0.024975      8.000000
  0.073411  0.014128  0.024975      8.000000
  0.110117  0.014128  0.024975      8.000000
  0.146823  0.014128  0.024975      8.000000
  0.183529  0.014128  0.024975      8.000000
  0.000000  0.035320  0.039960      4.000000
  0.036706  0.035320  0.039960      8.000000
  0.073411  0.035320  0.039960      8.000000
  0.110117  0.035320  0.039960      8.000000
  0.146823  0.035320  0.039960      8.000000
  0.183529  0.035320  0.039960      8.000000
  0.000000  0.056512  0.054945      4.000000
  0.036706  0.056512  0.054945      8.000000
  0.073411  0.056512  0.054945      8.000000
  0.110117  0.056512  0.054945      8.000000
  0.146823  0.056512  0.054945      8.000000
  0.183529  0.056512  0.054945      8.000000
  0.000000  0.077704  0.069930      4.000000
  0.036706  0.077704  0.069930      8.000000
  0.073411  0.077704  0.069930      8.000000
  0.110117  0.077704  0.069930      8.000000
  0.146823  0.077704  0.069930      8.000000
  0.183529  0.077704  0.069930      8.000000
  0.000000  0.098896  0.084915      4.000000
  0.036706  0.098896  0.084915      8.000000
  0.073411  0.098896  0.084915      8.000000
  0.110117  0.098896  0.084915      8.000000
  0.146823  0.098896  0.084915      8.000000
  0.183529  0.098896  0.084915      8.000000
  0.000000 -0.014128  0.019980      2.000000
  0.036706 -0.014128  0.019980      4.000000
  0.073411 -0.014128  0.019980      4.000000
  0.110117 -0.014128  0.019980      4.000000
  0.146823 -0.014128  0.019980      4.000000
  0.183529 -0.014128  0.019980      4.000000
  0.000000  0.007064  0.034965      4.000000
  0.036706  0.007064  0.034965      8.000000
  0.073411  0.007064  0.034965      8.000000
  0.110117  0.007064  0.034965      8.000000
  0.146823  0.007064  0.034965      8.000000
  0.183529  0.007064  0.034965      8.000000
  0.000000  0.028256  0.049950      4.000000
  0.036706  0.028256  0.049950      8.000000
  0.073411  0.028256  0.049950      8.000000
  0.110117  0.028256  0.049950      8.000000
  0.146823  0.028256  0.049950      8.000000
  0.183529  0.028256  0.049950      8.000000
  0.000000  0.049448  0.064935      4.000000
  0.036706  0.049448  0.064935      8.000000
  0.073411  0.049448  0.064935      8.000000
  0.110117  0.049448  0.064935      8.000000
  0.146823  0.049448  0.064935      8.000000
  0.183529  0.049448  0.064935      8.000000
  0.000000  0.070640  0.079920      4.000000
  0.036706  0.070640  0.079920      8.000000
  0.073411  0.070640  0.079920      8.000000
  0.110117  0.070640  0.079920      8.000000
  0.146823  0.070640  0.079920      8.000000
  0.183529  0.070640  0.079920      8.000000
  0.000000  0.091832  0.094905      4.000000
  0.036706  0.091832  0.094905      8.000000
  0.073411  0.091832  0.094905      8.000000
  0.110117  0.091832  0.094905      8.000000
  0.146823  0.091832  0.094905      8.000000
  0.183529  0.091832  0.094905      8.000000
  0.000000 -0.021192  0.029970      2.000000
  0.036706 -0.021192  0.029970      4.000000
  0.073411 -0.021192  0.029970      4.000000
  0.110117 -0.021192  0.029970      4.000000
  0.146823 -0.021192  0.029970      4.000000
  0.183529 -0.021192  0.029970      4.000000
  0.000000 -0.000000  0.044955      4.000000
  0.036706  0.000000  0.044955      8.000000
  0.073411  0.000000  0.044955      8.000000
  0.110117  0.000000  0.044955      8.000000
  0.146823  0.000000  0.044955      8.000000
  0.183529  0.000000  0.044955      8.000000
  0.000000  0.021192  0.059940      4.000000
  0.036706  0.021192  0.059940      8.000000
  0.073411  0.021192  0.059940      8.000000
  0.110117  0.021192  0.059940      8.000000
  0.146823  0.021192  0.059940      8.000000
  0.183529  0.021192  0.059940      8.000000
  0.000000  0.042384  0.074925      4.000000
  0.036706  0.042384  0.074925      8.000000
  0.073411  0.042384  0.074925      8.000000
  0.110117  0.042384  0.074925      8.000000
  0.146823  0.042384  0.074925      8.000000
  0.183529  0.042384  0.074925      8.000000
  0.000000  0.063576  0.089910      4.000000
  0.036706  0.063576  0.089910      8.000000
  0.073411  0.063576  0.089910      8.000000
  0.110117  0.063576  0.089910      8.000000
  0.146823  0.063576  0.089910      8.000000
  0.183529  0.063576  0.089910      8.000000
  0.000000  0.084768  0.104895      4.000000
  0.036706  0.084768  0.104895      8.000000
  0.073411  0.084768  0.104895      8.000000
  0.110117  0.084768  0.104895      8.000000
  0.146823  0.084768  0.104895      8.000000
  0.183529  0.084768  0.104895      8.000000
  0.000000 -0.028256  0.039960      2.000000
  0.036706 -0.028256  0.039960      4.000000
  0.073411 -0.028256  0.039960      4.000000
  0.110117 -0.028256  0.039960      4.000000
  0.146823 -0.028256  0.039960      4.000000
  0.183529 -0.028256  0.039960      4.000000
  0.000000 -0.007064  0.054945      4.000000
  0.036706 -0.007064  0.054945      8.000000
  0.073411 -0.007064  0.054945      8.000000
  0.110117 -0.007064  0.054945      8.000000
  0.146823 -0.007064  0.054945      8.000000
  0.183529 -0.007064  0.054945      8.000000
  0.000000  0.014128  0.069930      4.000000
  0.036706  0.014128  0.069930      8.000000
  0.073411  0.014128  0.069930      8.000000
  0.110117  0.014128  0.069930      8.000000
  0.146823  0.014128  0.069930      8.000000
  0.183529  0.014128  0.069930      8.000000
  0.000000  0.035320  0.084915      4.000000
  0.036706  0.035320  0.084915      8.000000
  0.073411  0.035320  0.084915      8.000000
  0.110117  0.035320  0.084915      8.000000
  0.146823  0.035320  0.084915      8.000000
  0.183529  0.035320  0.084915      8.000000
  0.000000  0.056512  0.099900      4.000000
  0.036706  0.056512  0.099900      8.000000
  0.073411  0.056512  0.099900      8.000000
  0.110117  0.056512  0.099900      8.000000
  0.146823  0.056512  0.099900      8.000000
  0.183529  0.056512  0.099900      8.000000
  0.000000  0.077704  0.114885      4.000000
  0.036706  0.077704  0.114885      8.000000
  0.073411  0.077704  0.114885      8.000000
  0.110117  0.077704  0.114885      8.000000
  0.146823  0.077704  0.114885      8.000000
  0.183529  0.077704  0.114885      8.000000
  0.000000 -0.035320  0.049950      2.000000
  0.036706 -0.035320  0.049950      4.000000
  0.073411 -0.035320  0.049950      4.000000
  0.110117 -0.035320  0.049950      4.000000
  0.146823 -0.035320  0.049950      4.000000
  0.183529 -0.035320  0.049950      4.000000
  0.000000 -0.014128  0.064935      4.000000
  0.036706 -0.014128  0.064935      8.000000
  0.073411 -0.014128  0.064935      8.000000
  0.110117 -0.014128  0.064935      8.000000
  0.146823 -0.014128  0.064935      8.000000
  0.183529 -0.014128  0.064935      8.000000
  0.000000  0.007064  0.079920      4.000000
  0.036706  0.007064  0.079920      8.000000
  0.073411  0.007064  0.079920      8.000000
  0.110117  0.007064  0.079920      8.000000
  0.146823  0.007064  0.079920      8.000000
  0.183529  0.007064  0.079920      8.000000
  0.000000  0.028256  0.094905      4.000000
  0.036706  0.028256  0.094905      8.000000
  0.073411  0.028256  0.094905      8.000000
  0.110117  0.028256  0.094905      8.000000
  0.146823  0.028256  0.094905      8.000000
  0.183529  0.028256  0.094905      8.000000
  0.000000  0.049448  0.109890      4.000000
  0.036706  0.049448  0.109890      8.000000
  0.073411  0.049448  0.109890      8.000000
  0.110117  0.049448  0.109890      8.000000
  0.146823  0.049448  0.109890      8.000000
  0.183529  0.049448  0.109890      8.000000
  0.000000  0.070640  0.124875      4.000000
  0.036706  0.070640  0.124875      8.000000
  0.073411  0.070640  0.124875      8.000000
  0.110117  0.070640  0.124875      8.000000
  0.146823  0.070640  0.124875      8.000000
  0.183529  0.070640  0.124875      8.000000
 


--------------------------------------------------------------------------------------------------------




 Dimension of arrays:
   k-points           NKPTS =    216   k-points in BZ     NKDIM =    216   number of bands    NBANDS=     40
   number of dos      NEDOS =    301   number of ions     NIONS =      6
   non local maximal  LDIM  =      6   non local SUM 2l+1 LMDIM =     18
   total plane-waves  NPLWV =  28224
   max r-space proj   IRMAX =      1   max aug-charges    IRDMAX=  14392
   dimension x,y,z NGX =    18 NGY =   28 NGZ =   56
   dimension x,y,z NGXF=    36 NGYF=   56 NGZF=  112
   support grid    NGXF=    36 NGYF=   56 NGZF=  112
   ions per type =               6
   NGX,Y,Z   is equivalent  to a cutoff of  12.08, 13.29, 12.53 a.u.
   NGXF,Y,Z  is equivalent  to a cutoff of  24.16, 26.58, 25.06 a.u.

 SYSTEM =  unknown system                          
 POSCAR =  Ni1 str #: 9                            

 Startparameter for this run:
   NWRITE =      2    write-flag & timer
   PREC   = accura    normal or accurate (medium, high low for compatibility)
   ISTART =      0    job   : 0-new  1-cont  2-samecut
   ICHARG =      2    charge: 1-file 2-atom 10-const
   ISPIN  =      2    spin polarized calculation?
   LNONCOLLINEAR =      F non collinear calculations
   LSORBIT =      F    spin-orbit coupling
   INIWAV =      1    electr: 0-lowe 1-rand  2-diag
   LASPH  =      T    aspherical Exc in radial PAW
   METAGGA=      F    non-selfconsistent MetaGGA calc.

 Electronic Relaxation 1
   ENCUT  =  520.0 eV  38.22 Ry    6.18 a.u.   4.61  6.51 13.82*2*pi/ulx,y,z
   ENINI  =  520.0     initial cutoff
   ENAUG  =  544.6 eV  augmentation charge cutoff
   NELM   =     60;   NELMIN=  2; NELMDL= -5     # of ELM steps 
   EDIFF  = 0.1E-05   stopping-criterion for ELM
   LREAL  =      F    real-space projection
   NLSPLINE    = F    spline interpolate recip. space projectors
   LCOMPAT=      F    compatible to vasp.4.4
   GGA_COMPAT  = T    GGA compatible to vasp.4.4-vasp.4.6
   LMAXPAW     = -100 max onsite density
   LMAXMIX     =    2 max onsite mixed and CHGCAR
   VOSKOWN=      0    Vosko Wilk Nusair interpolation
   ROPT   =    0.00000
 Ionic relaxation
   EDIFFG = 0.1E-04   stopping-criterion for IOM
   NSW    =      0    number of steps for IOM
   NBLOCK =      1;   KBLOCK =      1    inner block; outer block 
   IBRION =     -1    ionic relax: 0-MD 1-quasi-New 2-CG
   NFREE  =      1    steps in history (QN), initial steepest desc. (CG)
   ISIF   =      2    stress and relaxation
   IWAVPR =     10    prediction:  0-non 1-charg 2-wave 3-comb
   ISYM   =      2    0-nonsym 1-usesym 2-fastsym
   LCORR  =      T    Harris-Foulkes like correction to forces

   POTIM  = 0.5000    time-step for ionic-motion
   TEIN   =    0.0    initial temperature
   TEBEG  =    0.0;   TEEND  =   0.0 temperature during run
   SMASS  =  -3.00    Nose mass-parameter (am)
   estimated Nose-frequenzy (Omega)   =  0.10E-29 period in steps =****** mass=  -0.140E-27a.u.
   SCALEE = 1.0000    scale energy and forces
   NPACO  =    256;   APACO  = 16.0  distance and # of slots for P.C.
   PSTRESS=    0.0 pullay stress

  Mass of Ions in am
   POMASS =  58.69
  Ionic Valenz
   ZVAL   =  10.00
  Atomic Wigner-Seitz radii
   RWIGS  =  -1.00
  virtual crystal weights 
   VCA    =   1.00
   NELECT =      60.0000    total number of electrons
   NUPDOWN=      -1.0000    fix difference up-down

 DOS related values:
   EMIN   =  10.00;   EMAX   =-10.00  energy-range for DOS
   EFERMI =   0.00
   ISMEAR =     1;   SIGMA  =   0.20  broadening in eV -4-tet -1-fermi 0-gaus

 Electronic relaxation 2 (details)
   IALGO  =     38    algorithm
   LDIAG  =      T    sub-space diagonalisation (order eigenvalues)
   LSUBROT=      F    optimize rotation matrix (better conditioning)
   TURBO    =      0    0=normal 1=particle mesh
   IRESTART =      0    0=no restart 2=restart with 2 vectors
   NREBOOT  =      0    no. of reboots
   NMIN     =      0    reboot dimension
   EREF     =   0.00    reference energy to select bands
   IMIX   =      4    mixing-type and parameters
     AMIX     =   0.40;   BMIX     =  1.00
     AMIX_MAG =   1.60;   BMIX_MAG =  1.00
     AMIN     =   0.10
     WC   =   100.;   INIMIX=   1;  MIXPRE=   1;  MAXMIX= -45

 Intra band minimization:
   WEIMIN = 0.0000     energy-eigenvalue tresh-hold
   EBREAK =  0.62E-08  absolut break condition
   DEPER  =   0.30     relativ break condition  

   TIME   =   0.40     timestep for ELM

  volume/ion in A,a.u.               =      10.74        72.49
  Fermi-wavevector in a.u.,A,eV,Ry     =   1.598477  3.020684 34.764640  2.555129
  Thomas-Fermi vector in A             =   2.695921
 
 Write flags
   LWAVE        =      F    write WAVECAR
   LDOWNSAMPLE  =      F    k-point downsampling of WAVECAR
   LCHARG       =      F    write CHGCAR
   LVTOT        =      F    write LOCPOT, total local potential
   LVHAR        =      F    write LOCPOT, Hartree potential only
   LELF         =      F    write electronic localiz. function (ELF)
   LORBIT       =     11    0 simple, 1 ext, 2 COOP (PROOUT), +10 PAW based schemes


 Dipole corrections
   LMONO  =      F    monopole corrections only (constant potential shift)
   LDIPOL =      F    correct potential (dipole corrections)
   IDIPOL =      0    1-x, 2-y, 3-z, 4-all directions 
   EPSILON=  1.0000000 bulk dielectric constant

 Exchange correlation treatment:
   GGA     =    --    GGA type
   LEXCH   =     8    internal setting for exchange type
   VOSKOWN=      0    Vosko Wilk Nusair interpolation
   LHFCALC =     F    Hartree Fock is set to
   LHFONE  =     F    Hartree Fock one center treatment
   AEXX    =    0.0000 exact exchange contribution

 Linear response parameters
   LEPSILON=     F    determine dielectric tensor
   LRPA    =     F    only Hartree local field effects (RPA)
   LNABLA  =     F    use nabla operator in PAW spheres
   LVEL    =     F    velocity operator in full k-point grid
   LINTERFAST=   F  fast interpolation
   KINTER  =     0    interpolate to denser k-point grid
   CSHIFT  =0.1000    complex shift for real part using Kramers Kronig
   OMEGAMAX=  -1.0    maximum frequency
   DEG_THRESHOLD= 0.2000000E-02 threshold for treating states as degnerate
   RTIME   =   -0.100 relaxation time in fs
  (WPLASMAI=    0.000 imaginary part of plasma frequency in eV, 0.658/RTIME)
   DFIELD  = 0.0000000 0.0000000 0.0000000 field for delta impulse in time
 
 Orbital magnetization related:
   ORBITALMAG=     F  switch on orbital magnetization
   LCHIMAG   =     F  perturbation theory with respect to B field
   DQ        =  0.001000  dq finite difference perturbation B field
   LLRAUG    =     F  two centre corrections for induced B field



--------------------------------------------------------------------------------------------------------


 Static calculation
 charge density and potential will be updated during run
 spin polarized calculation
 Variant of blocked Davidson
 Davidson routine will perform the subspace rotation
 perform sub-space diagonalisation
    after iterative eigenvector-optimisation
 modified Broyden-mixing scheme, WC =      100.0
 initial mixing is a Kerker type mixing with AMIX =  0.4000 and BMIX =      1.0000
 Hartree-type preconditioning will be used
 using additional bands           10
 reciprocal scheme for non local part
 use partial core corrections
 calculate Harris-corrections to forces 
   (improved forces if not selfconsistent)
 use gradient corrections 
 use of overlap-Matrix (Vanderbilt PP)
 Methfessel and Paxton  Order N= 1 SIGMA  =   0.20


--------------------------------------------------------------------------------------------------------


  energy-cutoff  :      520.00
  volume of cell :       64.45
      direct lattice vectors                 reciprocal lattice vectors
     2.476700100  0.000000000  0.000000000     0.403763056  0.000000009  0.000000007
    -0.000000100  2.859846930  2.022217100     0.000000000  0.233112709  0.164835583
     0.000000000 -4.289770410  6.066651300     0.000000000 -0.077704236  0.109890388

  length of vectors
     2.476700100  3.502582827  7.430100145     0.403763056  0.285503598  0.134587688


 
 k-points in units of 2pi/SCALE and weight: k-points                                
   0.00000000  0.00000000  0.00000000       0.001
   0.03670573  0.00000000  0.00000000       0.002
   0.07341146  0.00000000  0.00000000       0.002
   0.11011720  0.00000000  0.00000000       0.002
   0.14682293  0.00000000  0.00000000       0.002
   0.18352866  0.00000000  0.00000000       0.002
   0.00000000  0.02119206  0.01498505       0.002
   0.03670573  0.02119207  0.01498505       0.003
   0.07341146  0.02119207  0.01498505       0.003
   0.11011720  0.02119207  0.01498505       0.003
   0.14682293  0.02119207  0.01498506       0.003
   0.18352866  0.02119207  0.01498506       0.003
   0.00000000  0.04238413  0.02997011       0.002
   0.03670573  0.04238413  0.02997011       0.003
   0.07341146  0.04238413  0.02997011       0.003
   0.11011720  0.04238413  0.02997011       0.003
   0.14682293  0.04238413  0.02997011       0.003
   0.18352866  0.04238413  0.02997011       0.003
   0.00000000  0.06357619  0.04495516       0.002
   0.03670573  0.06357619  0.04495516       0.003
   0.07341146  0.06357620  0.04495516       0.003
   0.11011720  0.06357620  0.04495516       0.003
   0.14682293  0.06357620  0.04495516       0.003
   0.18352866  0.06357620  0.04495516       0.003
   0.00000000  0.08476826  0.05994021       0.002
   0.03670573  0.08476826  0.05994021       0.003
   0.07341146  0.08476826  0.05994021       0.003
   0.11011720  0.08476826  0.05994021       0.003
   0.14682293  0.08476826  0.05994021       0.003
   0.18352866  0.08476826  0.05994021       0.003
   0.00000000  0.10596032  0.07492526       0.002
   0.03670573  0.10596032  0.07492527       0.003
   0.07341146  0.10596032  0.07492527       0.003
   0.11011720  0.10596032  0.07492527       0.003
   0.14682293  0.10596033  0.07492527       0.003
   0.18352866  0.10596033  0.07492527       0.003
   0.00000000 -0.00706402  0.00999004       0.002
   0.03670573 -0.00706402  0.00999004       0.003
   0.07341146 -0.00706402  0.00999004       0.003
   0.11011720 -0.00706402  0.00999004       0.003
   0.14682293 -0.00706402  0.00999004       0.003
   0.18352866 -0.00706402  0.00999004       0.003
   0.00000000  0.01412804  0.02497509       0.003
   0.03670573  0.01412804  0.02497509       0.006
   0.07341146  0.01412804  0.02497509       0.006
   0.11011720  0.01412805  0.02497509       0.006
   0.14682293  0.01412805  0.02497509       0.006
   0.18352866  0.01412805  0.02497509       0.006
   0.00000000  0.03532011  0.03996014       0.003
   0.03670573  0.03532011  0.03996014       0.006
   0.07341146  0.03532011  0.03996014       0.006
   0.11011720  0.03532011  0.03996014       0.006
   0.14682293  0.03532011  0.03996014       0.006
   0.18352866  0.03532011  0.03996014       0.006
   0.00000000  0.05651217  0.05494519       0.003
   0.03670573  0.05651217  0.05494519       0.006
   0.07341146  0.05651217  0.05494520       0.006
   0.11011720  0.05651217  0.05494520       0.006
   0.14682293  0.05651218  0.05494520       0.006
   0.18352866  0.05651218  0.05494520       0.006
   0.00000000  0.07770424  0.06993025       0.003
   0.03670573  0.07770424  0.06993025       0.006
   0.07341146  0.07770424  0.06993025       0.006
   0.11011720  0.07770424  0.06993025       0.006
   0.14682293  0.07770424  0.06993025       0.006
   0.18352866  0.07770424  0.06993025       0.006
   0.00000000  0.09889630  0.08491530       0.003
   0.03670573  0.09889630  0.08491530       0.006
   0.07341146  0.09889630  0.08491530       0.006
   0.11011720  0.09889630  0.08491530       0.006
   0.14682293  0.09889630  0.08491530       0.006
   0.18352866  0.09889631  0.08491530       0.006
   0.00000000 -0.01412804  0.01998007       0.002
   0.03670573 -0.01412804  0.01998007       0.003
   0.07341146 -0.01412804  0.01998007       0.003
   0.11011720 -0.01412804  0.01998007       0.003
   0.14682293 -0.01412804  0.01998007       0.003
   0.18352866 -0.01412804  0.01998007       0.003
   0.00000000  0.00706402  0.03496512       0.003
   0.03670573  0.00706402  0.03496512       0.006
   0.07341146  0.00706402  0.03496512       0.006
   0.11011720  0.00706402  0.03496513       0.006
   0.14682293  0.00706402  0.03496513       0.006
   0.18352866  0.00706403  0.03496513       0.006
   0.00000000  0.02825609  0.04995018       0.003
   0.03670573  0.02825609  0.04995018       0.006
   0.07341146  0.02825609  0.04995018       0.006
   0.11011720  0.02825609  0.04995018       0.006
   0.14682293  0.02825609  0.04995018       0.006
   0.18352866  0.02825609  0.04995018       0.006
   0.00000000  0.04944815  0.06493523       0.003
   0.03670573  0.04944815  0.06493523       0.006
   0.07341146  0.04944815  0.06493523       0.006
   0.11011720  0.04944815  0.06493523       0.006
   0.14682293  0.04944815  0.06493523       0.006
   0.18352866  0.04944815  0.06493523       0.006
   0.00000000  0.07064021  0.07992028       0.003
   0.03670573  0.07064022  0.07992028       0.006
   0.07341146  0.07064022  0.07992028       0.006
   0.11011720  0.07064022  0.07992028       0.006
   0.14682293  0.07064022  0.07992028       0.006
   0.18352866  0.07064022  0.07992029       0.006
   0.00000000  0.09183228  0.09490534       0.003
   0.03670573  0.09183228  0.09490534       0.006
   0.07341146  0.09183228  0.09490534       0.006
   0.11011720  0.09183228  0.09490534       0.006
   0.14682293  0.09183228  0.09490534       0.006
   0.18352866  0.09183228  0.09490534       0.006
   0.00000000 -0.02119206  0.02997011       0.002
   0.03670573 -0.02119206  0.02997011       0.003
   0.07341146 -0.02119206  0.02997011       0.003
   0.11011720 -0.02119206  0.02997011       0.003
   0.14682293 -0.02119206  0.02997011       0.003
   0.18352866 -0.02119206  0.02997011       0.003
   0.00000000 -0.00000000  0.04495516       0.003
   0.03670573  0.00000000  0.04495516       0.006
   0.07341146  0.00000000  0.04495516       0.006
   0.11011720  0.00000000  0.04495516       0.006
   0.14682293  0.00000000  0.04495516       0.006
   0.18352866  0.00000000  0.04495516       0.006
   0.00000000  0.02119206  0.05994021       0.003
   0.03670573  0.02119207  0.05994021       0.006
   0.07341146  0.02119207  0.05994021       0.006
   0.11011720  0.02119207  0.05994021       0.006
   0.14682293  0.02119207  0.05994021       0.006
   0.18352866  0.02119207  0.05994021       0.006
   0.00000000  0.04238413  0.07492526       0.003
   0.03670573  0.04238413  0.07492527       0.006
   0.07341146  0.04238413  0.07492527       0.006
   0.11011720  0.04238413  0.07492527       0.006
   0.14682293  0.04238413  0.07492527       0.006
   0.18352866  0.04238413  0.07492527       0.006
   0.00000000  0.06357619  0.08991032       0.003
   0.03670573  0.06357619  0.08991032       0.006
   0.07341146  0.06357620  0.08991032       0.006
   0.11011720  0.06357620  0.08991032       0.006
   0.14682293  0.06357620  0.08991032       0.006
   0.18352866  0.06357620  0.08991032       0.006
   0.00000000  0.08476826  0.10489537       0.003
   0.03670573  0.08476826  0.10489537       0.006
   0.07341146  0.08476826  0.10489537       0.006
   0.11011720  0.08476826  0.10489537       0.006
   0.14682293  0.08476826  0.10489537       0.006
   0.18352866  0.08476826  0.10489537       0.006
   0.00000000 -0.02825609  0.03996014       0.002
   0.03670573 -0.02825609  0.03996014       0.003
   0.07341146 -0.02825608  0.03996014       0.003
   0.11011720 -0.02825608  0.03996014       0.003
   0.14682293 -0.02825608  0.03996014       0.003
   0.18352866 -0.02825608  0.03996014       0.003
   0.00000000 -0.00706402  0.05494519       0.003
   0.03670573 -0.00706402  0.05494519       0.006
   0.07341146 -0.00706402  0.05494520       0.006
   0.11011720 -0.00706402  0.05494520       0.006
   0.14682293 -0.00706402  0.05494520       0.006
   0.18352866 -0.00706402  0.05494520       0.006
   0.00000000  0.01412804  0.06993025       0.003
   0.03670573  0.01412804  0.06993025       0.006
   0.07341146  0.01412804  0.06993025       0.006
   0.11011720  0.01412805  0.06993025       0.006
   0.14682293  0.01412805  0.06993025       0.006
   0.18352866  0.01412805  0.06993025       0.006
   0.00000000  0.03532011  0.08491530       0.003
   0.03670573  0.03532011  0.08491530       0.006
   0.07341146  0.03532011  0.08491530       0.006
   0.11011720  0.03532011  0.08491530       0.006
   0.14682293  0.03532011  0.08491530       0.006
   0.18352866  0.03532011  0.08491530       0.006
   0.00000000  0.05651217  0.09990035       0.003
   0.03670573  0.05651217  0.09990035       0.006
   0.07341146  0.05651217  0.09990035       0.006
   0.11011720  0.05651217  0.09990035       0.006
   0.14682293  0.05651218  0.09990036       0.006
   0.18352866  0.05651218  0.09990036       0.006
   0.00000000  0.07770424  0.11488541       0.003
   0.03670573  0.07770424  0.11488541       0.006
   0.07341146  0.07770424  0.11488541       0.006
   0.11011720  0.07770424  0.11488541       0.006
   0.14682293  0.07770424  0.11488541       0.006
   0.18352866  0.07770424  0.11488541       0.006
   0.00000000 -0.03532011  0.04995018       0.002
   0.03670573 -0.03532011  0.04995018       0.003
   0.07341146 -0.03532011  0.04995018       0.003
   0.11011720 -0.03532010  0.04995018       0.003
   0.14682293 -0.03532010  0.04995018       0.003
   0.18352866 -0.03532010  0.04995018       0.003
   0.00000000 -0.01412804  0.06493523       0.003
   0.03670573 -0.01412804  0.06493523       0.006
   0.07341146 -0.01412804  0.06493523       0.006
   0.11011720 -0.01412804  0.06493523       0.006
   0.14682293 -0.01412804  0.06493523       0.006
   0.18352866 -0.01412804  0.06493523       0.006
   0.00000000  0.00706402  0.07992028       0.003
   0.03670573  0.00706402  0.07992028       0.006
   0.07341146  0.00706402  0.07992028       0.006
   0.11011720  0.00706402  0.07992028       0.006
   0.14682293  0.00706402  0.07992028       0.006
   0.18352866  0.00706403  0.07992029       0.006
   0.00000000  0.02825609  0.09490534       0.003
   0.03670573  0.02825609  0.09490534       0.006
   0.07341146  0.02825609  0.09490534       0.006
   0.11011720  0.02825609  0.09490534       0.006
   0.14682293  0.02825609  0.09490534       0.006
   0.18352866  0.02825609  0.09490534       0.006
   0.00000000  0.04944815  0.10989039       0.003
   0.03670573  0.04944815  0.10989039       0.006
   0.07341146  0.04944815  0.10989039       0.006
   0.11011720  0.04944815  0.10989039       0.006
   0.14682293  0.04944815  0.10989039       0.006
   0.18352866  0.04944815  0.10989039       0.006
   0.00000000  0.07064021  0.12487544       0.003
   0.03670573  0.07064022  0.12487544       0.006
   0.07341146  0.07064022  0.12487544       0.006
   0.11011720  0.07064022  0.12487544       0.006
   0.14682293  0.07064022  0.12487544       0.006
   0.18352866  0.07064022  0.12487544       0.006
 
 k-points in reciprocal lattice and weights: k-points                                
   0.00000000  0.00000000  0.00000000       0.001
   0.09090909 -0.00000000 -0.00000000       0.002
   0.18181818 -0.00000000 -0.00000000       0.002
   0.27272727 -0.00000000 -0.00000000       0.002
   0.36363636 -0.00000000 -0.00000000       0.002
   0.45454545 -0.00000000 -0.00000000       0.002
   0.00000000  0.09090909 -0.00000000       0.002
   0.09090909  0.09090909  0.00000000       0.003
   0.18181818  0.09090909 -0.00000000       0.003
   0.27272727  0.09090909 -0.00000000       0.003
   0.36363636  0.09090909 -0.00000000       0.003
   0.45454545  0.09090909 -0.00000000       0.003
   0.00000000  0.18181818 -0.00000000       0.002
   0.09090909  0.18181818  0.00000000       0.003
   0.18181818  0.18181818  0.00000000       0.003
   0.27272727  0.18181818  0.00000000       0.003
   0.36363636  0.18181818 -0.00000000       0.003
   0.45454545  0.18181818 -0.00000000       0.003
   0.00000000  0.27272727 -0.00000000       0.002
   0.09090909  0.27272727  0.00000000       0.003
   0.18181818  0.27272727 -0.00000000       0.003
   0.27272727  0.27272727 -0.00000000       0.003
   0.36363636  0.27272727 -0.00000000       0.003
   0.45454545  0.27272727  0.00000000       0.003
   0.00000000  0.36363636 -0.00000000       0.002
   0.09090909  0.36363636  0.00000000       0.003
   0.18181818  0.36363636  0.00000000       0.003
   0.27272727  0.36363636 -0.00000000       0.003
   0.36363636  0.36363636  0.00000000       0.003
   0.45454545  0.36363636  0.00000000       0.003
   0.00000000  0.45454545 -0.00000000       0.002
   0.09090909  0.45454545 -0.00000000       0.003
   0.18181818  0.45454545  0.00000000       0.003
   0.27272727  0.45454545 -0.00000000       0.003
   0.36363636  0.45454545 -0.00000000       0.003
   0.45454545  0.45454545  0.00000000       0.003
   0.00000000 -0.00000000  0.09090909       0.002
   0.09090909  0.00000000  0.09090909       0.003
   0.18181818  0.00000000  0.09090909       0.003
   0.27272727 -0.00000000  0.09090909       0.003
   0.36363636 -0.00000000  0.09090909       0.003
   0.45454545 -0.00000000  0.09090909       0.003
   0.00000000  0.09090909  0.09090909       0.003
   0.09090909  0.09090909  0.09090909       0.006
   0.18181818  0.09090909  0.09090909       0.006
   0.27272727  0.09090909  0.09090909       0.006
   0.36363636  0.09090909  0.09090909       0.006
   0.45454545  0.09090909  0.09090909       0.006
   0.00000000  0.18181818  0.09090909       0.003
   0.09090909  0.18181818  0.09090909       0.006
   0.18181818  0.18181818  0.09090909       0.006
   0.27272727  0.18181818  0.09090909       0.006
   0.36363636  0.18181818  0.09090909       0.006
   0.45454545  0.18181818  0.09090909       0.006
   0.00000000  0.27272727  0.09090909       0.003
   0.09090909  0.27272727  0.09090909       0.006
   0.18181818  0.27272727  0.09090909       0.006
   0.27272727  0.27272727  0.09090909       0.006
   0.36363636  0.27272727  0.09090909       0.006
   0.45454545  0.27272727  0.09090909       0.006
   0.00000000  0.36363636  0.09090909       0.003
   0.09090909  0.36363636  0.09090909       0.006
   0.18181818  0.36363636  0.09090909       0.006
   0.27272727  0.36363636  0.09090909       0.006
   0.36363636  0.36363636  0.09090909       0.006
   0.45454545  0.36363636  0.09090909       0.006
   0.00000000  0.45454545  0.09090909       0.003
   0.09090909  0.45454545  0.09090909       0.006
   0.18181818  0.45454545  0.09090909       0.006
   0.27272727  0.45454545  0.09090909       0.006
   0.36363636  0.45454545  0.09090909       0.006
   0.45454545  0.45454545  0.09090909       0.006
   0.00000000 -0.00000000  0.18181818       0.002
   0.09090909 -0.00000000  0.18181818       0.003
   0.18181818  0.00000000  0.18181818       0.003
   0.27272727 -0.00000000  0.18181818       0.003
   0.36363636  0.00000000  0.18181818       0.003
   0.45454545 -0.00000000  0.18181818       0.003
   0.00000000  0.09090909  0.18181818       0.003
   0.09090909  0.09090909  0.18181818       0.006
   0.18181818  0.09090909  0.18181818       0.006
   0.27272727  0.09090909  0.18181818       0.006
   0.36363636  0.09090909  0.18181818       0.006
   0.45454545  0.09090909  0.18181818       0.006
   0.00000000  0.18181818  0.18181818       0.003
   0.09090909  0.18181818  0.18181818       0.006
   0.18181818  0.18181818  0.18181818       0.006
   0.27272727  0.18181818  0.18181818       0.006
   0.36363636  0.18181818  0.18181818       0.006
   0.45454545  0.18181818  0.18181818       0.006
   0.00000000  0.27272727  0.18181818       0.003
   0.09090909  0.27272727  0.18181818       0.006
   0.18181818  0.27272727  0.18181818       0.006
   0.27272727  0.27272727  0.18181818       0.006
   0.36363636  0.27272727  0.18181818       0.006
   0.45454545  0.27272727  0.18181818       0.006
   0.00000000  0.36363636  0.18181818       0.003
   0.09090909  0.36363636  0.18181818       0.006
   0.18181818  0.36363636  0.18181818       0.006
   0.27272727  0.36363636  0.18181818       0.006
   0.36363636  0.36363636  0.18181818       0.006
   0.45454545  0.36363636  0.18181818       0.006
   0.00000000  0.45454545  0.18181818       0.003
   0.09090909  0.45454545  0.18181818       0.006
   0.18181818  0.45454545  0.18181818       0.006
   0.27272727  0.45454545  0.18181818       0.006
   0.36363636  0.45454545  0.18181818       0.006
   0.45454545  0.45454545  0.18181818       0.006
   0.00000000 -0.00000000  0.27272727       0.002
   0.09090909 -0.00000000  0.27272727       0.003
   0.18181818 -0.00000000  0.27272727       0.003
   0.27272727 -0.00000000  0.27272727       0.003
   0.36363636  0.00000000  0.27272727       0.003
   0.45454545 -0.00000000  0.27272727       0.003
   0.00000000  0.09090909  0.27272727       0.003
   0.09090909  0.09090909  0.27272727       0.006
   0.18181818  0.09090909  0.27272727       0.006
   0.27272727  0.09090909  0.27272727       0.006
   0.36363636  0.09090909  0.27272727       0.006
   0.45454545  0.09090909  0.27272727       0.006
   0.00000000  0.18181818  0.27272727       0.003
   0.09090909  0.18181818  0.27272727       0.006
   0.18181818  0.18181818  0.27272727       0.006
   0.27272727  0.18181818  0.27272727       0.006
   0.36363636  0.18181818  0.27272727       0.006
   0.45454545  0.18181818  0.27272727       0.006
   0.00000000  0.27272727  0.27272727       0.003
   0.09090909  0.27272727  0.27272727       0.006
   0.18181818  0.27272727  0.27272727       0.006
   0.27272727  0.27272727  0.27272727       0.006
   0.36363636  0.27272727  0.27272727       0.006
   0.45454545  0.27272727  0.27272727       0.006
   0.00000000  0.36363636  0.27272727       0.003
   0.09090909  0.36363636  0.27272727       0.006
   0.18181818  0.36363636  0.27272727       0.006
   0.27272727  0.36363636  0.27272727       0.006
   0.36363636  0.36363636  0.27272727       0.006
   0.45454545  0.36363636  0.27272727       0.006
   0.00000000  0.45454545  0.27272727       0.003
   0.09090909  0.45454545  0.27272727       0.006
   0.18181818  0.45454545  0.27272727       0.006
   0.27272727  0.45454545  0.27272727       0.006
   0.36363636  0.45454545  0.27272727       0.006
   0.45454545  0.45454545  0.27272727       0.006
   0.00000000 -0.00000000  0.36363636       0.002
   0.09090909 -0.00000000  0.36363636       0.003
   0.18181818 -0.00000000  0.36363636       0.003
   0.27272727 -0.00000000  0.36363636       0.003
   0.36363636  0.00000000  0.36363636       0.003
   0.45454545  0.00000000  0.36363636       0.003
   0.00000000  0.09090909  0.36363636       0.003
   0.09090909  0.09090909  0.36363636       0.006
   0.18181818  0.09090909  0.36363636       0.006
   0.27272727  0.09090909  0.36363636       0.006
   0.36363636  0.09090909  0.36363636       0.006
   0.45454545  0.09090909  0.36363636       0.006
   0.00000000  0.18181818  0.36363636       0.003
   0.09090909  0.18181818  0.36363636       0.006
   0.18181818  0.18181818  0.36363636       0.006
   0.27272727  0.18181818  0.36363636       0.006
   0.36363636  0.18181818  0.36363636       0.006
   0.45454545  0.18181818  0.36363636       0.006
   0.00000000  0.27272727  0.36363636       0.003
   0.09090909  0.27272727  0.36363636       0.006
   0.18181818  0.27272727  0.36363636       0.006
   0.27272727  0.27272727  0.36363636       0.006
   0.36363636  0.27272727  0.36363636       0.006
   0.45454545  0.27272727  0.36363636       0.006
   0.00000000  0.36363636  0.36363636       0.003
   0.09090909  0.36363636  0.36363636       0.006
   0.18181818  0.36363636  0.36363636       0.006
   0.27272727  0.36363636  0.36363636       0.006
   0.36363636  0.36363636  0.36363636       0.006
   0.45454545  0.36363636  0.36363636       0.006
   0.00000000  0.45454545  0.36363636       0.003
   0.09090909  0.45454545  0.36363636       0.006
   0.18181818  0.45454545  0.36363636       0.006
   0.27272727  0.45454545  0.36363636       0.006
   0.36363636  0.45454545  0.36363636       0.006
   0.45454545  0.45454545  0.36363636       0.006
   0.00000000 -0.00000000  0.45454545       0.002
   0.09090909 -0.00000000  0.45454545       0.003
   0.18181818 -0.00000000  0.45454545       0.003
   0.27272727 -0.00000000  0.45454545       0.003
   0.36363636  0.00000000  0.45454545       0.003
   0.45454545 -0.00000000  0.45454545       0.003
   0.00000000  0.09090909  0.45454545       0.003
   0.09090909  0.09090909  0.45454545       0.006
   0.18181818  0.09090909  0.45454545       0.006
   0.27272727  0.09090909  0.45454545       0.006
   0.36363636  0.09090909  0.45454545       0.006
   0.45454545  0.09090909  0.45454545       0.006
   0.00000000  0.18181818  0.45454545       0.003
   0.09090909  0.18181818  0.45454545       0.006
   0.18181818  0.18181818  0.45454545       0.006
   0.27272727  0.18181818  0.45454545       0.006
   0.36363636  0.18181818  0.45454545       0.006
   0.45454545  0.18181818  0.45454545       0.006
   0.00000000  0.27272727  0.45454545       0.003
   0.09090909  0.27272727  0.45454545       0.006
   0.18181818  0.27272727  0.45454545       0.006
   0.27272727  0.27272727  0.45454545       0.006
   0.36363636  0.27272727  0.45454545       0.006
   0.45454545  0.27272727  0.45454545       0.006
   0.00000000  0.36363636  0.45454545       0.003
   0.09090909  0.36363636  0.45454545       0.006
   0.18181818  0.36363636  0.45454545       0.006
   0.27272727  0.36363636  0.45454545       0.006
   0.36363636  0.36363636  0.45454545       0.006
   0.45454545  0.36363636  0.45454545       0.006
   0.00000000  0.45454545  0.45454545       0.003
   0.09090909  0.45454545  0.45454545       0.006
   0.18181818  0.45454545  0.45454545       0.006
   0.27272727  0.45454545  0.45454545       0.006
   0.36363636  0.45454545  0.45454545       0.006
   0.45454545  0.45454545  0.45454545       0.006
 
 position of ions in fractional coordinates (direct lattice) 
   0.00000000  0.00000000  0.00000000
   0.50000000  0.50000000  0.16666667
   0.00000000  0.00000000  0.33333333
   0.50000000  0.50000000  0.50000000
   0.00000000  0.00000000  0.66666667
   0.50000000  0.50000000  0.83333333
 
 position of ions in cartesian coordinates  (Angst):
   0.00000000  0.00000000  0.00000000
   1.23835000  0.71496173  2.02221710
   0.00000000 -1.42992347  2.02221710
   1.23835000 -0.71496174  4.04443420
   0.00000000 -2.85984694  4.04443420
   1.23835000 -2.14488521  6.06665130
 


--------------------------------------------------------------------------------------------------------


 k-point  1 :   0.0000 0.0000 0.0000  plane waves:    1743
 k-point  2 :   0.0909-0.0000-0.0000  plane waves:    1729
 k-point  3 :   0.1818-0.0000-0.0000  plane waves:    1729
 k-point  4 :   0.2727-0.0000-0.0000  plane waves:    1743
 k-point  5 :   0.3636-0.0000-0.0000  plane waves:    1751
 k-point  6 :   0.4545-0.0000-0.0000  plane waves:    1738
 k-point  7 :   0.0000 0.0909-0.0000  plane waves:    1735
 k-point  8 :   0.0909 0.0909 0.0000  plane waves:    1740
 k-point  9 :   0.1818 0.0909-0.0000  plane waves:    1740
 k-point 10 :   0.2727 0.0909-0.0000  plane waves:    1746
 k-point 11 :   0.3636 0.0909-0.0000  plane waves:    1738
 k-point 12 :   0.4545 0.0909-0.0000  plane waves:    1725
 k-point 13 :   0.0000 0.1818-0.0000  plane waves:    1755
 k-point 14 :   0.0909 0.1818 0.0000  plane waves:    1751
 k-point 15 :   0.1818 0.1818 0.0000  plane waves:    1741
 k-point 16 :   0.2727 0.1818 0.0000  plane waves:    1735
 k-point 17 :   0.3636 0.1818-0.0000  plane waves:    1744
 k-point 18 :   0.4545 0.1818-0.0000  plane waves:    1736
 k-point 19 :   0.0000 0.2727-0.0000  plane waves:    1743
 k-point 20 :   0.0909 0.2727 0.0000  plane waves:    1756
 k-point 21 :   0.1818 0.2727-0.0000  plane waves:    1738
 k-point 22 :   0.2727 0.2727-0.0000  plane waves:    1733
 k-point 23 :   0.3636 0.2727-0.0000  plane waves:    1733
 k-point 24 :   0.4545 0.2727 0.0000  plane waves:    1732
 k-point 25 :   0.0000 0.3636-0.0000  plane waves:    1745
 k-point 26 :   0.0909 0.3636 0.0000  plane waves:    1745
 k-point 27 :   0.1818 0.3636 0.0000  plane waves:    1732
 k-point 28 :   0.2727 0.3636-0.0000  plane waves:    1722
 k-point 29 :   0.3636 0.3636 0.0000  plane waves:    1714
 k-point 30 :   0.4545 0.3636 0.0000  plane waves:    1720
 k-point 31 :   0.0000 0.4545-0.0000  plane waves:    1757
 k-point 32 :   0.0909 0.4545-0.0000  plane waves:    1747
 k-point 33 :   0.1818 0.4545 0.0000  plane waves:    1735
 k-point 34 :   0.2727 0.4545-0.0000  plane waves:    1735
 k-point 35 :   0.3636 0.4545-0.0000  plane waves:    1703
 k-point 36 :   0.4545 0.4545 0.0000  plane waves:    1703
 k-point 37 :   0.0000-0.0000 0.0909  plane waves:    1743
 k-point 38 :   0.0909 0.0000 0.0909  plane waves:    1735
 k-point 39 :   0.1818 0.0000 0.0909  plane waves:    1737
 k-point 40 :   0.2727-0.0000 0.0909  plane waves:    1746
 k-point 41 :   0.3636-0.0000 0.0909  plane waves:    1746
 k-point 42 :   0.4545-0.0000 0.0909  plane waves:    1735
 k-point 43 :   0.0000 0.0909 0.0909  plane waves:    1740
 k-point 44 :   0.0909 0.0909 0.0909  plane waves:    1736
 k-point 45 :   0.1818 0.0909 0.0909  plane waves:    1742
 k-point 46 :   0.2727 0.0909 0.0909  plane waves:    1739
 k-point 47 :   0.3636 0.0909 0.0909  plane waves:    1737
 k-point 48 :   0.4545 0.0909 0.0909  plane waves:    1734
 k-point 49 :   0.0000 0.1818 0.0909  plane waves:    1751
 k-point 50 :   0.0909 0.1818 0.0909  plane waves:    1749
 k-point 51 :   0.1818 0.1818 0.0909  plane waves:    1740
 k-point 52 :   0.2727 0.1818 0.0909  plane waves:    1737
 k-point 53 :   0.3636 0.1818 0.0909  plane waves:    1737
 k-point 54 :   0.4545 0.1818 0.0909  plane waves:    1738
 k-point 55 :   0.0000 0.2727 0.0909  plane waves:    1745
 k-point 56 :   0.0909 0.2727 0.0909  plane waves:    1755
 k-point 57 :   0.1818 0.2727 0.0909  plane waves:    1739
 k-point 58 :   0.2727 0.2727 0.0909  plane waves:    1730
 k-point 59 :   0.3636 0.2727 0.0909  plane waves:    1732
 k-point 60 :   0.4545 0.2727 0.0909  plane waves:    1731
 k-point 61 :   0.0000 0.3636 0.0909  plane waves:    1745
 k-point 62 :   0.0909 0.3636 0.0909  plane waves:    1752
 k-point 63 :   0.1818 0.3636 0.0909  plane waves:    1732
 k-point 64 :   0.2727 0.3636 0.0909  plane waves:    1726
 k-point 65 :   0.3636 0.3636 0.0909  plane waves:    1716
 k-point 66 :   0.4545 0.3636 0.0909  plane waves:    1719
 k-point 67 :   0.0000 0.4545 0.0909  plane waves:    1750
 k-point 68 :   0.0909 0.4545 0.0909  plane waves:    1744
 k-point 69 :   0.1818 0.4545 0.0909  plane waves:    1738
 k-point 70 :   0.2727 0.4545 0.0909  plane waves:    1728
 k-point 71 :   0.3636 0.4545 0.0909  plane waves:    1708
 k-point 72 :   0.4545 0.4545 0.0909  plane waves:    1706
 k-point 73 :   0.0000-0.0000 0.1818  plane waves:    1743
 k-point 74 :   0.0909-0.0000 0.1818  plane waves:    1743
 k-point 75 :   0.1818 0.0000 0.1818  plane waves:    1740
 k-point 76 :   0.2727-0.0000 0.1818  plane waves:    1741
 k-point 77 :   0.3636 0.0000 0.1818  plane waves:    1741
 k-point 78 :   0.4545-0.0000 0.1818  plane waves:    1733
 k-point 79 :   0.0000 0.0909 0.1818  plane waves:    1746
 k-point 80 :   0.0909 0.0909 0.1818  plane waves:    1737
 k-point 81 :   0.1818 0.0909 0.1818  plane waves:    1740
 k-point 82 :   0.2727 0.0909 0.1818  plane waves:    1738
 k-point 83 :   0.3636 0.0909 0.1818  plane waves:    1730
 k-point 84 :   0.4545 0.0909 0.1818  plane waves:    1740
 k-point 85 :   0.0000 0.1818 0.1818  plane waves:    1747
 k-point 86 :   0.0909 0.1818 0.1818  plane waves:    1750
 k-point 87 :   0.1818 0.1818 0.1818  plane waves:    1741
 k-point 88 :   0.2727 0.1818 0.1818  plane waves:    1740
 k-point 89 :   0.3636 0.1818 0.1818  plane waves:    1736
 k-point 90 :   0.4545 0.1818 0.1818  plane waves:    1730
 k-point 91 :   0.0000 0.2727 0.1818  plane waves:    1752
 k-point 92 :   0.0909 0.2727 0.1818  plane waves:    1745
 k-point 93 :   0.1818 0.2727 0.1818  plane waves:    1729
 k-point 94 :   0.2727 0.2727 0.1818  plane waves:    1730
 k-point 95 :   0.3636 0.2727 0.1818  plane waves:    1735
 k-point 96 :   0.4545 0.2727 0.1818  plane waves:    1729
 k-point 97 :   0.0000 0.3636 0.1818  plane waves:    1746
 k-point 98 :   0.0909 0.3636 0.1818  plane waves:    1751
 k-point 99 :   0.1818 0.3636 0.1818  plane waves:    1739
 k-point ** :   0.2727 0.3636 0.1818  plane waves:    1734
 k-point ** :   0.3636 0.3636 0.1818  plane waves:    1721
 k-point ** :   0.4545 0.3636 0.1818  plane waves:    1712
 k-point ** :   0.0000 0.4545 0.1818  plane waves:    1744
 k-point ** :   0.0909 0.4545 0.1818  plane waves:    1743
 k-point ** :   0.1818 0.4545 0.1818  plane waves:    1736
 k-point ** :   0.2727 0.4545 0.1818  plane waves:    1728
 k-point ** :   0.3636 0.4545 0.1818  plane waves:    1713
 k-point ** :   0.4545 0.4545 0.1818  plane waves:    1708
 k-point ** :   0.0000-0.0000 0.2727  plane waves:    1738
 k-point ** :   0.0909-0.0000 0.2727  plane waves:    1741
 k-point ** :   0.1818-0.0000 0.2727  plane waves:    1742
 k-point ** :   0.2727-0.0000 0.2727  plane waves:    1741
 k-point ** :   0.3636 0.0000 0.2727  plane waves:    1735
 k-point ** :   0.4545-0.0000 0.2727  plane waves:    1744
 k-point ** :   0.0000 0.0909 0.2727  plane waves:    1748
 k-point ** :   0.0909 0.0909 0.2727  plane waves:    1743
 k-point ** :   0.1818 0.0909 0.2727  plane waves:    1741
 k-point ** :   0.2727 0.0909 0.2727  plane waves:    1741
 k-point ** :   0.3636 0.0909 0.2727  plane waves:    1730
 k-point ** :   0.4545 0.0909 0.2727  plane waves:    1739
 k-point ** :   0.0000 0.1818 0.2727  plane waves:    1749
 k-point ** :   0.0909 0.1818 0.2727  plane waves:    1743
 k-point ** :   0.1818 0.1818 0.2727  plane waves:    1739
 k-point ** :   0.2727 0.1818 0.2727  plane waves:    1738
 k-point ** :   0.3636 0.1818 0.2727  plane waves:    1736
 k-point ** :   0.4545 0.1818 0.2727  plane waves:    1725
 k-point ** :   0.0000 0.2727 0.2727  plane waves:    1752
 k-point ** :   0.0909 0.2727 0.2727  plane waves:    1747
 k-point ** :   0.1818 0.2727 0.2727  plane waves:    1737
 k-point ** :   0.2727 0.2727 0.2727  plane waves:    1732
 k-point ** :   0.3636 0.2727 0.2727  plane waves:    1731
 k-point ** :   0.4545 0.2727 0.2727  plane waves:    1726
 k-point ** :   0.0000 0.3636 0.2727  plane waves:    1739
 k-point ** :   0.0909 0.3636 0.2727  plane waves:    1744
 k-point ** :   0.1818 0.3636 0.2727  plane waves:    1746
 k-point ** :   0.2727 0.3636 0.2727  plane waves:    1731
 k-point ** :   0.3636 0.3636 0.2727  plane waves:    1728
 k-point ** :   0.4545 0.3636 0.2727  plane waves:    1716
 k-point ** :   0.0000 0.4545 0.2727  plane waves:    1744
 k-point ** :   0.0909 0.4545 0.2727  plane waves:    1733
 k-point ** :   0.1818 0.4545 0.2727  plane waves:    1738
 k-point ** :   0.2727 0.4545 0.2727  plane waves:    1723
 k-point ** :   0.3636 0.4545 0.2727  plane waves:    1719
 k-point ** :   0.4545 0.4545 0.2727  plane waves:    1710
 k-point ** :   0.0000-0.0000 0.3636  plane waves:    1736
 k-point ** :   0.0909-0.0000 0.3636  plane waves:    1739
 k-point ** :   0.1818-0.0000 0.3636  plane waves:    1749
 k-point ** :   0.2727-0.0000 0.3636  plane waves:    1744
 k-point ** :   0.3636 0.0000 0.3636  plane waves:    1733
 k-point ** :   0.4545 0.0000 0.3636  plane waves:    1750
 k-point ** :   0.0000 0.0909 0.3636  plane waves:    1738
 k-point ** :   0.0909 0.0909 0.3636  plane waves:    1743
 k-point ** :   0.1818 0.0909 0.3636  plane waves:    1744
 k-point ** :   0.2727 0.0909 0.3636  plane waves:    1745
 k-point ** :   0.3636 0.0909 0.3636  plane waves:    1735
 k-point ** :   0.4545 0.0909 0.3636  plane waves:    1739
 k-point ** :   0.0000 0.1818 0.3636  plane waves:    1750
 k-point ** :   0.0909 0.1818 0.3636  plane waves:    1740
 k-point ** :   0.1818 0.1818 0.3636  plane waves:    1733
 k-point ** :   0.2727 0.1818 0.3636  plane waves:    1743
 k-point ** :   0.3636 0.1818 0.3636  plane waves:    1730
 k-point ** :   0.4545 0.1818 0.3636  plane waves:    1727
 k-point ** :   0.0000 0.2727 0.3636  plane waves:    1749
 k-point ** :   0.0909 0.2727 0.3636  plane waves:    1743
 k-point ** :   0.1818 0.2727 0.3636  plane waves:    1736
 k-point ** :   0.2727 0.2727 0.3636  plane waves:    1737
 k-point ** :   0.3636 0.2727 0.3636  plane waves:    1727
 k-point ** :   0.4545 0.2727 0.3636  plane waves:    1731
 k-point ** :   0.0000 0.3636 0.3636  plane waves:    1744
 k-point ** :   0.0909 0.3636 0.3636  plane waves:    1738
 k-point ** :   0.1818 0.3636 0.3636  plane waves:    1743
 k-point ** :   0.2727 0.3636 0.3636  plane waves:    1731
 k-point ** :   0.3636 0.3636 0.3636  plane waves:    1728
 k-point ** :   0.4545 0.3636 0.3636  plane waves:    1724
 k-point ** :   0.0000 0.4545 0.3636  plane waves:    1738
 k-point ** :   0.0909 0.4545 0.3636  plane waves:    1737
 k-point ** :   0.1818 0.4545 0.3636  plane waves:    1743
 k-point ** :   0.2727 0.4545 0.3636  plane waves:    1730
 k-point ** :   0.3636 0.4545 0.3636  plane waves:    1721
 k-point ** :   0.4545 0.4545 0.3636  plane waves:    1718
 k-point ** :   0.0000-0.0000 0.4545  plane waves:    1732
 k-point ** :   0.0909-0.0000 0.4545  plane waves:    1739
 k-point ** :   0.1818-0.0000 0.4545  plane waves:    1738
 k-point ** :   0.2727-0.0000 0.4545  plane waves:    1750
 k-point ** :   0.3636 0.0000 0.4545  plane waves:    1731
 k-point ** :   0.4545-0.0000 0.4545  plane waves:    1754
 k-point ** :   0.0000 0.0909 0.4545  plane waves:    1744
 k-point ** :   0.0909 0.0909 0.4545  plane waves:    1741
 k-point ** :   0.1818 0.0909 0.4545  plane waves:    1750
 k-point ** :   0.2727 0.0909 0.4545  plane waves:    1740
 k-point ** :   0.3636 0.0909 0.4545  plane waves:    1737
 k-point ** :   0.4545 0.0909 0.4545  plane waves:    1751
 k-point ** :   0.0000 0.1818 0.4545  plane waves:    1749
 k-point ** :   0.0909 0.1818 0.4545  plane waves:    1740
 k-point ** :   0.1818 0.1818 0.4545  plane waves:    1743
 k-point ** :   0.2727 0.1818 0.4545  plane waves:    1737
 k-point ** :   0.3636 0.1818 0.4545  plane waves:    1729
 k-point ** :   0.4545 0.1818 0.4545  plane waves:    1721
 k-point ** :   0.0000 0.2727 0.4545  plane waves:    1746
 k-point ** :   0.0909 0.2727 0.4545  plane waves:    1749
 k-point ** :   0.1818 0.2727 0.4545  plane waves:    1739
 k-point ** :   0.2727 0.2727 0.4545  plane waves:    1735
 k-point ** :   0.3636 0.2727 0.4545  plane waves:    1724
 k-point ** :   0.4545 0.2727 0.4545  plane waves:    1721
 k-point ** :   0.0000 0.3636 0.4545  plane waves:    1732
 k-point ** :   0.0909 0.3636 0.4545  plane waves:    1737
 k-point ** :   0.1818 0.3636 0.4545  plane waves:    1744
 k-point ** :   0.2727 0.3636 0.4545  plane waves:    1740
 k-point ** :   0.3636 0.3636 0.4545  plane waves:    1726
 k-point ** :   0.4545 0.3636 0.4545  plane waves:    1725
 k-point ** :   0.0000 0.4545 0.4545  plane waves:    1727
 k-point ** :   0.0909 0.4545 0.4545  plane waves:    1732
 k-point ** :   0.1818 0.4545 0.4545  plane waves:    1746
 k-point ** :   0.2727 0.4545 0.4545  plane waves:    1725
 k-point ** :   0.3636 0.4545 0.4545  plane waves:    1719
 k-point ** :   0.4545 0.4545 0.4545  plane waves:    1720

 maximum and minimum number of plane-waves per node :      1757     1703

 maximum number of plane-waves:      1757
 maximum index in each direction: 
   IXMAX=    4   IYMAX=    6   IZMAX=   13
   IXMIN=   -5   IYMIN=   -6   IZMIN=  -14


 serial   3D FFT for wavefunctions
 parallel 3D FFT for charge:
    minimum data exchange during FFTs selected (reduces bandwidth)


 total amount of memory used by VASP MPI-rank0   155516. kBytes
=======================================================================

   base      :      30000. kBytes
   nonl-proj :      54912. kBytes
   fftplans  :       1159. kBytes
   grid      :       4563. kBytes
   one-center:        186. kBytes
   wavefun   :      64696. kBytes
 
     INWAV:  cpu time    0.0000: real time    0.0002
 Broyden mixing: mesh for mixing (old mesh)
   NGX =  9   NGY = 13   NGZ = 27
  (NGX  = 36   NGY  = 56   NGZ  =112)
  gives a total of   3159 points

 initial charge density was supplied:
 charge density of overlapping atoms calculated
 number of electron      60.0000000 magnetization       0.0000000
 keeping initial charge density in first step


--------------------------------------------------------------------------------------------------------


 Maximum index for augmentation-charges         2096 (set IRDMAX)


--------------------------------------------------------------------------------------------------------


 First call to EWALD:  gamma=   0.442
 Maximum number of real-space cells 4x 3x 2
 Maximum number of reciprocal cells 2x 2x 5

    FEWALD:  cpu time    0.0014: real time    0.0014


--------------------------------------- Iteration      1(   1)  ---------------------------------------


    POTLOK:  cpu time    0.0492: real time    0.0545
    SETDIJ:  cpu time    0.6503: real time    0.6519
     EDDAV:  cpu time   13.1163: real time   13.1702
       DOS:  cpu time    0.0094: real time    0.0094
    --------------------------------------------
      LOOP:  cpu time   13.8252: real time   13.8860

 eigenvalue-minimisations  : 35024
 total energy-change (2. order) : 0.4274363E+03  (-0.2634267E+04)
 number of electron      60.0000000 magnetization       0.0000000
 augmentation part       60.0000000 magnetization       0.0000000

 Free energy of the ion-electron system (eV)
  ---------------------------------------------------
  alpha Z        PSCENC =       284.84662160
  Ewald energy   TEWEN  =     -5654.77337669
  -Hartree energ DENC   =     -1458.62963583
  -exchange      EXHF   =         0.00000000
  -V(xc)+E(xc)   XCENC  =       190.87501938
  PAW double counting   =      5776.99904162    -6178.02427365
  entropy T*S    EENTRO =         0.00224277
  eigenvalues    EBANDS =      1000.11518217
  atomic energy  EATOM  =      6466.02551641
  Solvation  Ediel_sol  =         0.00000000
  ---------------------------------------------------
  free energy    TOTEN  =       427.43633778 eV

  energy without entropy =      427.43409501  energy(sigma->0) =      427.43559019


--------------------------------------------------------------------------------------------------------




--------------------------------------- Iteration      1(   2)  ---------------------------------------


     EDDAV:  cpu time   12.6887: real time   12.7208
       DOS:  cpu time    0.0104: real time    0.0104
    --------------------------------------------
      LOOP:  cpu time   12.6991: real time   12.7312

 eigenvalue-minimisations  : 34584
 total energy-change (2. order) :-0.4337600E+03  (-0.4145603E+03)
 number of electron      60.0000000 magnetization       0.0000000
 augmentation part       60.0000000 magnetization       0.0000000

 Free energy of the ion-electron system (eV)
  ---------------------------------------------------
  alpha Z        PSCENC =       284.84662160
  Ewald energy   TEWEN  =     -5654.77337669
  -Hartree energ DENC   =     -1458.62963583
  -exchange      EXHF   =         0.00000000
  -V(xc)+E(xc)   XCENC  =       190.87501938
  PAW double counting   =      5776.99904162    -6178.02427365
  entropy T*S    EENTRO =        -0.00124307
  eigenvalues    EBANDS =       566.35865623
  atomic energy  EATOM  =      6466.02551641
  Solvation  Ediel_sol  =         0.00000000
  ---------------------------------------------------
  free energy    TOTEN  =        -6.32367400 eV

  energy without entropy =       -6.32243093  energy(sigma->0) =       -6.32325964


--------------------------------------------------------------------------------------------------------




[...]
      2       4.8308      1.00000
      3       5.1737      1.00000
      4       5.3487      1.00000
      5       5.8779      1.00000
      6       5.8974      1.00000
      7       6.4717      1.00000
      8       6.4826      1.00000
      9       6.7391      1.00000
     10       6.7898      1.00000
     11       6.9083      1.00000
     12       6.9385      1.00000
     13       7.0468      1.00000
     14       7.1167      1.00000
     15       7.1717      1.00000
     16       7.2037      1.00000
     17       7.2831      1.00000
     18       7.3732      1.00000
     19       7.8981      1.00000
     20       7.9725      1.00000
     21       8.0396      1.00000
     22       8.0673      1.00000
     23       8.1167      1.00000
     24       8.1668      1.00000
     25       8.5520      1.00000
     26       8.6771      1.00000
     27       8.7396      1.00001
     28       8.8180      1.00010
     29       9.2863      0.94126
     30       9.3523      0.75636
     31      10.0193     -0.00009
     32      10.2246     -0.00000
     33      10.6002     -0.00000
     34      10.8319     -0.00000
     35      13.2613     -0.00000
     36      13.5166     -0.00000
     37      16.0136      0.00000
     38      16.2884      0.00000
     39      19.8040      0.00000
     40      19.9973      0.00000

 k-point   215 :       0.3636    0.4545    0.4545
  band No.  band energies     occupation 
      1       5.0179      1.00000
      2       5.2363      1.00000
      3       5.2729      1.00000
      4       5.5042      1.00000
      5       6.0839      1.00000
      6       6.1001      1.00000
      7       6.3375      1.00000
      8       6.3674      1.00000
      9       6.9096      1.00000
     10       6.9394      1.00000
     11       6.9670      1.00000
     12       7.0642      1.00000
     13       7.0801      1.00000
     14       7.1724      1.00000
     15       7.2567      1.00000
     16       7.3156      1.00000
     17       7.4099      1.00000
     18       7.4353      1.00000
     19       7.7050      1.00000
     20       7.7910      1.00000
     21       7.8744      1.00000
     22       7.9682      1.00000
     23       8.4097      1.00000
     24       8.4459      1.00000
     25       8.8397      1.00018
     26       8.9509      1.00242
     27       9.0105      1.00726
     28       9.1580      1.03483
     29       9.3841      0.63464
     30       9.4696      0.28311
     31      10.4368     -0.00000
     32      10.7460     -0.00000
     33      11.1402     -0.00000
     34      11.4705     -0.00000
     35      14.8281     -0.00000
     36      15.2384      0.00000
     37      16.5851      0.00000
     38      17.0255      0.00000
     39      17.2281      0.00000
     40      17.4173      0.00000

 k-point   216 :       0.4545    0.4545    0.4545
  band No.  band energies     occupation 
      1       5.1484      1.00000
      2       5.2269      1.00000
      3       5.4112      1.00000
      4       5.4879      1.00000
      5       5.9192      1.00000
      6       5.9229      1.00000
      7       6.5118      1.00000
      8       6.5276      1.00000
      9       6.8656      1.00000
     10       6.9106      1.00000
     11       6.9329      1.00000
     12       6.9941      1.00000
     13       7.1250      1.00000
     14       7.1910      1.00000
     15       7.5086      1.00000
     16       7.5783      1.00000
     17       7.6052      1.00000
     18       7.6495      1.00000
     19       7.7940      1.00000
     20       7.8189      1.00000
     21       7.8624      1.00000
     22       7.9368      1.00000
     23       8.4970      1.00000
     24       8.5428      1.00000
     25       9.0642      1.01598
     26       9.0925      1.02218
     27       9.2555      0.99108
     28       9.4923      0.20275
     29       9.5863     -0.00176
     30       9.6657     -0.03538
     31      11.0639     -0.00000
     32      11.5037     -0.00000
     33      11.5163     -0.00000
     34      11.9819     -0.00000
     35      15.6644      0.00000
     36      15.8511      0.00000
     37      16.1758      0.00000
     38      16.2925      0.00000
     39      16.3656      0.00000
     40      16.6928      0.00000


--------------------------------------------------------------------------------------------------------


 soft charge-density along one line, spin component           1
         0         1         2         3         4         5         6         7         8         9
 total charge-density along one line
 
 soft charge-density along one line, spin component           2
         0         1         2         3         4         5         6         7         8         9
 total charge-density along one line
 
 pseudopotential strength for first ion, spin component:           1
 -0.267  -0.000   0.000  -0.042   0.000  -0.958  -0.000   0.000
 -0.000  -0.230  -0.012  -0.000  -0.027  -0.000  -0.923  -0.012
  0.000  -0.012  -0.301  -0.000   0.013   0.000  -0.012  -0.991
 -0.042  -0.000  -0.000  -0.237  -0.000  -0.040  -0.000  -0.000
  0.000  -0.027   0.013  -0.000  -0.301   0.000  -0.026   0.012
 -0.958  -0.000   0.000  -0.040   0.000  -1.578  -0.000   0.000
 -0.000  -0.923  -0.012  -0.000  -0.026  -0.000  -1.544  -0.011
  0.000  -0.012  -0.991  -0.000   0.012   0.000  -0.011  -1.609
 -0.040  -0.000  -0.000  -0.930  -0.000  -0.038  -0.000  -0.000
  0.000  -0.026   0.012  -0.000  -0.991   0.000  -0.025   0.011
  0.000   0.003  -0.003   0.000   0.003   0.000   0.002  -0.002
  0.000   0.004  -0.005   0.000   0.005   0.000   0.004  -0.004
  0.000   0.000   0.001  -0.000   0.001   0.000   0.000   0.001
 -0.000   0.001   0.001  -0.000   0.000  -0.000   0.001   0.001
 -0.000  -0.000  -0.000   0.001  -0.000  -0.000  -0.000  -0.000
  0.000   0.000   0.002  -0.000   0.001   0.000   0.000   0.002
 -0.000   0.001   0.001  -0.000   0.000  -0.000   0.001   0.001
 -0.001  -0.000  -0.000   0.001  -0.000  -0.000  -0.000  -0.000
 pseudopotential strength for first ion, spin component:           2
  0.027  -0.000   0.000   0.002   0.000  -0.678  -0.000   0.000
 -0.000   0.032   0.005  -0.000   0.014  -0.000  -0.673   0.005
  0.000   0.005   0.064  -0.000  -0.005   0.000   0.005  -0.643
  0.002  -0.000  -0.000   0.026  -0.000   0.001  -0.000  -0.000
  0.000   0.014  -0.005  -0.000   0.063   0.000   0.013  -0.005
 -0.678  -0.000   0.000   0.001   0.000  -1.311  -0.000   0.000
 -0.000  -0.673   0.005  -0.000   0.013  -0.000  -1.306   0.004
  0.000   0.005  -0.643  -0.000  -0.005   0.000   0.004  -1.277
  0.001  -0.000  -0.000  -0.679  -0.000   0.001  -0.000  -0.000
  0.000   0.013  -0.005  -0.000  -0.644   0.000   0.012  -0.005
  0.000   0.001   0.000   0.000  -0.001   0.000   0.001   0.000
  0.000   0.001   0.001   0.000  -0.002   0.000   0.001   0.001
 -0.000   0.001  -0.001   0.000  -0.000  -0.000   0.001  -0.001
  0.000  -0.001   0.000   0.000  -0.000   0.000  -0.001   0.000
 -0.000   0.000   0.000   0.000   0.000  -0.000   0.000   0.000
 -0.000   0.001  -0.001   0.000  -0.000  -0.000   0.001  -0.001
  0.000  -0.002   0.000   0.000  -0.000   0.000  -0.002   0.000
 -0.000   0.000   0.000   0.000   0.000  -0.000   0.000   0.000
 total augmentation occupancy for first ion, spin component:           1
  2.929  -0.000   0.000  -0.418   0.000  -1.334   0.000  -0.000   0.196  -0.000   0.000  -0.000   0.000   0.000  -0.000   0.000
 -0.000   3.245   0.002  -0.000  -0.377   0.000  -1.487  -0.004   0.000   0.169  -0.001   0.001   0.002  -0.000  -0.000  -0.000
  0.000   0.002   2.715  -0.000   0.003  -0.000  -0.003  -1.255   0.000  -0.001  -0.005  -0.000   0.001   0.005  -0.000   0.000
 -0.418  -0.000  -0.000   3.225  -0.000   0.196   0.000   0.000  -1.473   0.000   0.000  -0.000  -0.000  -0.000   0.000   0.000
  0.000  -0.377   0.003  -0.000   2.980  -0.000   0.168  -0.001   0.000  -1.374   0.009   0.000   0.005  -0.002  -0.000  -0.000
 -1.334   0.000  -0.000   0.196  -0.000   1.487  -0.000   0.000  -0.036   0.000  -0.000   0.000  -0.000  -0.000  -0.000  -0.000
  0.000  -1.487  -0.003   0.000   0.168  -0.000   1.523   0.003  -0.000  -0.016   0.001  -0.001  -0.001   0.001   0.000   0.000
 -0.000  -0.004  -1.255   0.000  -0.001   0.000   0.003   1.505  -0.000   0.001   0.002   0.000   0.000  -0.003   0.000  -0.000
  0.196   0.000   0.000  -1.473   0.000  -0.036  -0.000  -0.000   1.513  -0.000  -0.000   0.000   0.000   0.000   0.000   0.000
 -0.000   0.169  -0.001   0.000  -1.374   0.000  -0.016   0.001  -0.000   1.516  -0.005  -0.000  -0.002   0.002   0.000  -0.000
  0.000  -0.001  -0.005   0.000   0.009  -0.000   0.001   0.002  -0.000  -0.005   2.342  -0.331  -0.000   0.000   0.000   0.000
 -0.000   0.001  -0.000  -0.000   0.000   0.000  -0.001   0.000   0.000  -0.000  -0.331   0.054   0.000  -0.000   0.000  -0.000
  0.000   0.002   0.001  -0.000   0.005  -0.000  -0.001   0.000   0.000  -0.002  -0.000   0.000   0.310  -0.000  -0.000  -0.034
  0.000  -0.000   0.005  -0.000  -0.002  -0.000   0.001  -0.003   0.000   0.002   0.000  -0.000  -0.000   0.310  -0.000   0.000
 -0.000  -0.000  -0.000   0.000  -0.000  -0.000   0.000   0.000   0.000   0.000   0.000   0.000  -0.000  -0.000   0.311   0.000
  0.000  -0.000   0.000   0.000  -0.000  -0.000   0.000  -0.000   0.000  -0.000   0.000  -0.000  -0.034   0.000   0.000   0.004
 -0.000   0.000  -0.000  -0.000   0.000   0.000  -0.000  -0.000   0.000  -0.000  -0.000   0.000   0.000  -0.034   0.000  -0.000
  0.000   0.000   0.000  -0.000   0.000   0.000   0.000   0.000  -0.000   0.000   0.000   0.000   0.000   0.000  -0.034  -0.000
 total augmentation occupancy for first ion, spin component:           2
  0.394  -0.000   0.000   0.105   0.000  -0.189   0.000  -0.000  -0.045  -0.000  -0.000  -0.000  -0.000   0.000  -0.002   0.000
 -0.000   0.297   0.066  -0.000   0.091   0.000  -0.146  -0.038   0.000  -0.039   0.008   0.002   0.010  -0.020   0.000   0.000
  0.000   0.066   0.606  -0.000  -0.079  -0.000  -0.037  -0.306   0.000   0.045  -0.003  -0.001  -0.014   0.005   0.000   0.001
  0.105  -0.000  -0.000   0.320  -0.000  -0.045   0.000   0.000  -0.157   0.000  -0.000  -0.000   0.000   0.000   0.002  -0.000
  0.000   0.091  -0.079  -0.000   0.660  -0.000  -0.041   0.046   0.000  -0.347   0.000   0.001  -0.001  -0.006   0.000   0.001
 -0.189   0.000  -0.000  -0.045  -0.000   0.053  -0.000   0.000   0.011   0.000   0.000  -0.000   0.000  -0.000   0.003  -0.000
  0.000  -0.146  -0.037   0.000  -0.041  -0.000   0.042   0.020  -0.000   0.011  -0.005  -0.001  -0.009   0.013  -0.000  -0.000
 -0.000  -0.038  -0.306   0.000   0.046   0.000   0.020   0.112  -0.000  -0.024   0.003   0.001   0.006  -0.008  -0.000  -0.001
 -0.045   0.000   0.000  -0.157   0.000   0.011  -0.000  -0.000   0.045  -0.000   0.000  -0.000   0.000  -0.000  -0.004   0.000
 -0.000  -0.039   0.045   0.000  -0.347   0.000   0.011  -0.024  -0.000   0.141  -0.001  -0.001  -0.003   0.005  -0.000  -0.001
 -0.000   0.008  -0.003  -0.000   0.000   0.000  -0.005   0.003   0.000  -0.001  -0.059   0.022   0.005  -0.008   0.000  -0.000
 -0.000   0.002  -0.001  -0.000   0.001  -0.000  -0.001   0.001  -0.000  -0.001   0.022  -0.005   0.000  -0.001   0.000  -0.000
 -0.000   0.010  -0.014   0.000  -0.001   0.000  -0.009   0.006   0.000  -0.003   0.005   0.000  -0.004  -0.000   0.000   0.001
  0.000  -0.020   0.005   0.000  -0.006  -0.000   0.013  -0.008  -0.000   0.005  -0.008  -0.001  -0.000  -0.004   0.000   0.000
 -0.002   0.000   0.000   0.002   0.000   0.003  -0.000  -0.000  -0.004  -0.000   0.000  -0.000   0.000   0.000  -0.004  -0.000
  0.000   0.000   0.001  -0.000   0.001  -0.000  -0.000  -0.001   0.000  -0.001  -0.000  -0.000   0.001   0.000  -0.000  -0.000
  0.000   0.000   0.001  -0.000   0.000   0.000  -0.001  -0.000   0.000  -0.000   0.000   0.000   0.000   0.001  -0.000  -0.000
 -0.000  -0.000  -0.000   0.000  -0.000   0.000   0.000   0.000  -0.000   0.000   0.000  -0.000  -0.000  -0.000   0.001   0.000


------------------------ aborting loop because EDIFF is reached ----------------------------------------


 


 total charge     
 
# of ion       s       p       d       tot
------------------------------------------
    1        0.501   0.505   8.331   9.337
    2        0.502   0.509   8.316   9.327
    3        0.501   0.505   8.331   9.337
    4        0.501   0.505   8.331   9.337
    5        0.502   0.509   8.316   9.327
    6        0.501   0.505   8.331   9.337
--------------------------------------------------
tot          3.006   3.039  49.957  56.003
 


 magnetization (x)
 
# of ion       s       p       d       tot
------------------------------------------
    1       -0.000  -0.003   0.362   0.358
    2       -0.001  -0.009   0.553   0.543
    3       -0.000  -0.003   0.362   0.358
    4        0.000   0.003  -0.362  -0.358
    5        0.001   0.009  -0.553  -0.543
    6        0.000   0.003  -0.362  -0.358
--------------------------------------------------
tot          0.000  -0.000   0.000   0.000
 
    CHARGE:  cpu time    0.8909: real time    0.8930
    FORLOC:  cpu time    0.0013: real time    0.0013
    FORNL :  cpu time    3.0128: real time    3.0200
    STRESS:  cpu time    4.3975: real time    4.4080
    FORCOR:  cpu time    0.0429: real time    0.0430
    FORHAR:  cpu time    0.0055: real time    0.0055
    MIXING:  cpu time    0.0019: real time    0.0019
    OFIELD:  cpu time    0.0001: real time    0.0001

  FORCE on cell =-STRESS in cart. coord.  units (eV):
  Direction    XX          YY          ZZ          XY          YZ          ZX
  --------------------------------------------------------------------------------------
  Alpha Z   284.84662   284.84662   284.84662
  Ewald   -1884.92330 -1884.92330 -1884.92323     0.00003    -0.00000     0.00002
  Hartree   444.81880   444.92954   445.25666     0.00001    -0.46259     0.00000
  E(xc)    -330.29184  -330.30171  -330.31418     0.00000     0.01764     0.00000
  Local       7.66406     7.14634     5.95687    -0.00002     1.68210    -0.00001
  n-local   -45.67128   -46.59080   -45.92938     3.28668     0.26743     1.72281
  augment  1055.37939  1056.00888  1056.74062    -0.00001    -1.03488    -0.00001
  Kinetic   469.12338   469.00721   470.08851     0.82874    -0.36040     0.42713
  Fock        0.00000     0.00000     0.00000     0.00000     0.00000     0.00000
  -------------------------------------------------------------------------------------
  Total       0.94583     0.86726     0.97803    -0.00000    -0.15665    -0.00000
  in kB      23.51071    21.55775    24.31114    -0.00000    -3.89389    -0.00000
  external pressure =       23.13 kB  Pullay stress =        0.00 kB


 VOLUME and BASIS-vectors are now :
 -----------------------------------------------------------------------------
  energy-cutoff  :      520.00
  volume of cell :       64.45
      direct lattice vectors                 reciprocal lattice vectors
     2.476700100  0.000000000  0.000000000     0.403763056  0.000000009  0.000000007
    -0.000000100  2.859846930  2.022217100     0.000000000  0.233112709  0.164835583
     0.000000000 -4.289770410  6.066651300     0.000000000 -0.077704236  0.109890388

  length of vectors
     2.476700100  3.502582827  7.430100145     0.403763056  0.285503598  0.134587688


 FORCES acting on ions
    electron-ion (+dipol)            ewald-force                    non-local-force                 convergence-correction
 -----------------------------------------------------------------------------------------------
   0.476E-13 -.382E-01 0.541E-01   0.155E-13 0.000E+00 -.568E-13   0.154E-19 -.315E-01 0.446E-01   0.703E-13 0.107E-02 -.152E-02
   0.420E-12 -.187E-04 0.265E-04   -.310E-13 0.118E-05 -.167E-05   -.125E-23 -.169E-19 0.271E-19   0.358E-13 0.366E-07 -.518E-07
   0.118E-12 0.383E-01 -.541E-01   0.359E-13 -.118E-05 0.167E-05   -.741E-20 0.315E-01 -.446E-01   0.731E-13 -.107E-02 0.152E-02
   0.508E-12 -.382E-01 0.541E-01   0.415E-14 -.284E-13 -.114E-12   -.110E-20 -.315E-01 0.446E-01   0.310E-13 0.107E-02 -.152E-02
   -.401E-13 -.187E-04 0.265E-04   -.327E-13 0.118E-05 -.167E-05   0.120E-23 -.305E-19 -.271E-19   0.712E-13 0.366E-07 -.518E-07
   0.585E-12 0.383E-01 -.541E-01   0.253E-13 -.118E-05 0.167E-05   0.921E-20 0.315E-01 -.446E-01   0.312E-13 -.107E-02 0.152E-02
 -----------------------------------------------------------------------------------------------
   0.164E-11 -.744E-06 0.105E-05   0.172E-13 0.730E-13 -.134E-12   0.161E-19 -.139E-16 0.278E-16   0.313E-12 0.297E-08 -.420E-08
 
 
 POSITION                                       TOTAL-FORCE (eV/Angst)
 -----------------------------------------------------------------------------------
      0.00000      0.00000      0.00000        -0.000000     -0.068723      0.097189
      1.23835      0.71496      2.02222         0.000000     -0.000000     -0.000000
      0.00000     -1.42992      2.02222         0.000000      0.068723     -0.097189
      1.23835     -0.71496      4.04443        -0.000000     -0.068723      0.097189
      0.00000     -2.85985      4.04443        -0.000000     -0.000000     -0.000000
      1.23835     -2.14489      6.06665         0.000000      0.068723     -0.097189
 -----------------------------------------------------------------------------------
    total drift:                                0.000000     -0.000001      0.000001


--------------------------------------------------------------------------------------------------------



  FREE ENERGIE OF THE ION-ELECTRON SYSTEM (eV)
  ---------------------------------------------------
  free  energy   TOTEN  =       -32.53726232 eV

  energy  without entropy=      -32.51178383  energy(sigma->0) =      -32.52876949
 


--------------------------------------------------------------------------------------------------------


    POTLOK:  cpu time    0.6429: real time    0.6444


--------------------------------------------------------------------------------------------------------


     LOOP+:  cpu time  274.9481: real time  275.6434
    4ORBIT:  cpu time    0.0000: real time    0.0000
 


 total charge     
 
# of ion       s       p       d       tot
------------------------------------------
    1        0.501   0.505   8.331   9.337
    2        0.502   0.509   8.316   9.327
    3        0.501   0.505   8.331   9.337
    4        0.501   0.505   8.331   9.337
    5        0.502   0.509   8.316   9.327
    6        0.501   0.505   8.331   9.337
--------------------------------------------------
tot          3.006   3.039  49.957  56.003
 


 magnetization (x)
 
# of ion       s       p       d       tot
------------------------------------------
    1       -0.000  -0.003   0.362   0.358
    2       -0.001  -0.009   0.553   0.543
    3       -0.000  -0.003   0.362   0.358
    4        0.000   0.003  -0.362  -0.358
    5        0.001   0.009  -0.553  -0.543
    6        0.000   0.003  -0.362  -0.358
--------------------------------------------------
tot          0.000  -0.000   0.000   0.000
 

 total amount of memory used by VASP MPI-rank0   155516. kBytes
=======================================================================

   base      :      30000. kBytes
   nonl-proj :      54912. kBytes
   fftplans  :       1159. kBytes
   grid      :       4563. kBytes
   one-center:        186. kBytes
   wavefun   :      64696. kBytes
 
  
  
 General timing and accounting informations for this job:
 ========================================================
  
                  Total CPU time used (sec):      280.426
                            User time (sec):      277.191
                          System time (sec):        3.235
                         Elapsed time (sec):      282.017
  
                   Maximum memory used (kb):      178024.
                   Average memory used (kb):           0.
  
                          Minor page faults:      1351643
                          Major page faults:            0
                 Voluntary context switches:         1407
