unknown system                          
   1.00000000000000     
     1.269537    1.453020    1.453020
     0.000000    2.850141   -2.850141
    -4.119474    1.616072    1.616072
   Fe
     4
Direct
  0.457638  0.000000  0.486607
  0.292362  0.500000  0.763393
  0.957638  0.000000  0.986607
  0.792362  0.500000  0.263393
 
   36   60   72
 0.81715807629E+03 0.53730037016E+03 0.86691225300E+03 0.86868064924E+03 0.66966680319E+03
 0.45534944070E+03 0.29266791281E+03 0.18477391028E+03 0.11737172906E+03 0.76243735383E+02
 0.51300734364E+02 0.36060443851E+02 0.26710424018E+02 0.20661633271E+02 0.17338043785E+02
 0.15324210752E+02 0.14381345839E+02 0.14362418455E+02 0.15267508580E+02 0.17231826094E+02
 0.20503268955E+02 0.26424398824E+02 0.35604766089E+02 0.50561803582E+02 0.75035809448E+02
 0.11538742679E+03 0.18155198488E+03 0.28761187438E+03 0.44805443726E+03 0.66101751623E+03
 0.86321952541E+03 0.87348276200E+03 0.55104702204E+03 0.76659823288E+03 0.30742787700E+04
 0.31577662512E+04 0.52580950926E+03 0.61120737760E+03 0.88834078256E+03 0.85213789959E+03
 0.64910695789E+03 0.44073637283E+03 0.28389304184E+03 0.17983202206E+03 0.11464661968E+03
 0.74742424294E+02 0.50458717475E+02 0.35577652589E+02 0.26421959965E+02 0.20499890385E+02
 0.17220179742E+02 0.15237102035E+02 0.14307785710E+02 0.14289025184E+02 0.15181075972E+02
 0.17115486519E+02 0.20343386322E+02 0.26141007190E+02 0.35131733684E+02 0.49737680543E+02
 0.73567780626E+02 0.11272377369E+03 0.17671966315E+03 0.27901985271E+03 0.43369248754E+03
 0.64061045613E+03 0.84608448599E+03 0.89260113617E+03 0.62523917499E+03 0.50951628729E+03
 0.14880481194E+04 0.15288792803E+04 0.54073933603E+03 0.79720122975E+03 0.90786700679E+03
 0.79452717228E+03 0.58989638044E+03 0.39989059502E+03 0.25941885010E+03 0.16599416392E+03
 0.10697375679E+03 0.70480374783E+02 0.48057512236E+02 0.34190265263E+02 0.25589283869E+02
 0.20025828598E+02 0.16876628890E+02 0.14981493034E+02 0.14091372653E+02 0.14073667618E+02
 0.14927163979E+02 0.16776083148E+02 0.19874248247E+02 0.25322913987E+02 0.33772221415E+02
 0.47386727230E+02 0.69398838479E+02 0.10522170765E+03 0.16318622961E+03 0.25505398699E+03
 0.39356314370E+03 0.58196475407E+03 0.78747726530E+03 0.90704664667E+03 0.80578727058E+03
 0.54899848247E+03 0.45219078383E+03 0.45238982598E+03 0.83963963149E+03 0.90781540696E+03
 0.85112822403E+03 0.68919910433E+03 0.50117478471E+03 0.34096302578E+03 0.22416439671E+03
 0.14586236641E+03 0.95660969161E+02 0.64118069223E+02 0.44422551952E+02 0.32073304420E+02
 0.24296442170E+02 0.19273066127E+02 0.16334529201E+02 0.14575454327E+02 0.13747391283E+02
 0.13731041864E+02 0.14523807138E+02 0.16240816638E+02 0.19129256341E+02 0.24051922923E+02
 0.31696622582E+02 0.43825297495E+02 0.63172148008E+02 0.94154509620E+02 0.14348747392E+03
 0.22052306281E+03 0.33569628508E+03 0.49434513786E+03 0.68202670133E+03 0.84641030067E+03
 0.90821564517E+03 0.84354721564E+03 0.75265843829E+03 0.75052047064E+03 0.89331968718E+03
 0.83191468096E+03 0.70905504703E+03 0.55168471755E+03 0.39900337972E+03 0.27479738875E+03
 0.18433372815E+03 0.12275382851E+03 0.82428027489E+02 0.56530488307E+02 0.40008169525E+02
 0.29460073308E+02 0.22676506819E+02 0.18292627425E+02 0.15636249423E+02 0.14045426966E+02
 0.13297093090E+02 0.13282677948E+02 0.13997109131E+02 0.15550855942E+02 0.18158884957E+02
 0.22461284100E+02 0.29131013481E+02 0.39497667541E+02 0.55740345946E+02 0.81199021455E+02
 0.12086065486E+03 0.18148960577E+03 0.27072934260E+03 0.39365239444E+03 0.54555225344E+03
 0.70341998440E+03 0.82829316450E+03 0.89206081289E+03 0.90734717839E+03 0.90746996718E+03
 0.72813049719E+03 0.64557114972E+03 0.53295982182E+03 0.41126108498E+03 0.30042852326E+03
 0.21129354697E+03 0.14553479156E+03 0.99725004109E+02 0.68908970305E+02 0.48592898707E+02
 0.35279620498E+02 0.26600454201E+02 0.20604788857E+02 0.17156213243E+02 0.14830284638E+02
 0.13426676198E+02 0.12768743792E+02 0.12755584092E+02 0.13382726363E+02 0.14753476321E+02
 0.17035315172E+02 0.20438719079E+02 0.26319609398E+02 0.34858696321E+02 0.47957806107E+02
 0.67949819994E+02 0.98289399309E+02 0.14343721590E+03 0.20835574658E+03 0.29658564392E+03
 0.40672492847E+03 0.52833487921E+03 0.64171136589E+03 0.72570509405E+03 0.76876707246E+03
 0.76956739375E+03 0.51411381866E+03 0.45175719748E+03 0.37274719791E+03 0.29081477503E+03
 0.21694801591E+03 0.15686327879E+03 0.11147584326E+03 0.78931548045E+02 0.56348530912E+02
 0.40994748317E+02 0.30645520584E+02 0.23701314256E+02 0.18924675568E+02 0.15948616041E+02
 0.13965462086E+02 0.12758688385E+02 0.12191988457E+02 0.12179443327E+02 0.12719711414E+02
 0.13895725043E+02 0.15841930561E+02 0.18774764235E+02 0.23466182470E+02 0.30307215054E+02
 0.40498949302E+02 0.55626064763E+02 0.77886352096E+02 0.10999831333E+03 0.15485271503E+03
 0.21437268782E+03 0.28778493854E+03 0.36958494422E+03 0.44895684795E+03 0.51219368676E+03
 0.54739500897E+03 0.54807615621E+03 0.33788321954E+03 0.29885169046E+03 0.24989009823E+03
 0.19905389271E+03 0.15259601460E+03 0.11389890825E+03 0.83798333205E+02 0.61469449674E+02
 0.45456853503E+02 0.34192141681E+02 0.26380328313E+02 0.20640153573E+02 0.17213752432E+02
 0.14745302313E+02 0.13086839754E+02 0.12078821457E+02 0.11597479914E+02 0.11585277080E+02
 0.12043825017E+02 0.13023581995E+02 0.14651359910E+02 0.17080453981E+02 0.20468506425E+02
 0.26110106632E+02 0.33812356196E+02 0.44924305897E+02 0.60729400521E+02 0.82791108549E+02
 0.11257526155E+03 0.15094923235E+03 0.19715835353E+03 0.24792809821E+03 0.29710661076E+03
 0.33666982341E+03 0.35899658960E+03 0.35943175161E+03 0.21561440814E+03 0.19304545375E+03
 0.16447767852E+03 0.13433674015E+03 0.10614206981E+03 0.81960865388E+02 0.62506413968E+02
 0.47576778692E+02 0.36482972151E+02 0.28411502210E+02 0.22615291375E+02 0.18391879206E+02
 0.15589798797E+02 0.13591275081E+02 0.12238667805E+02 0.11409610205E+02 0.11008357062E+02
 0.10997801110E+02 0.11376232154E+02 0.12181717246E+02 0.13506307150E+02 0.15473745003E+02
 0.18239475024E+02 0.22398515679E+02 0.28122395461E+02 0.36093360562E+02 0.47059901203E+02
 0.61830655336E+02 0.81108477698E+02 0.10511790555E+03 0.13319175516E+03 0.16331836946E+03
 0.19202863898E+03 0.21491185961E+03 0.22777644238E+03 0.22802773741E+03 0.13720098555E+03
 0.12456400691E+03 0.10832552267E+03 0.90826936291E+02 0.74009206437E+02 0.59140543282E+02
 0.46775623678E+02 0.36940159006E+02 0.29363706888E+02 0.23673042456E+02 0.19260594271E+02
 0.16328566334E+02 0.14124710517E+02 0.12534531618E+02 0.11453772690E+02 0.10777036204E+02
 0.10448696574E+02 0.10438206601E+02 0.10745243212E+02 0.11400014207E+02 0.12456546970E+02
 0.14019875767E+02 0.16193954712E+02 0.19096100423E+02 0.23446120743E+02 0.29076561277E+02
 0.36575339615E+02 0.46322761681E+02 0.58592278521E+02 0.73376897466E+02 0.90142738635E+02
 0.10765221123E+03 0.12398487816E+03 0.13680666124E+03 0.14395052678E+03 0.14409100306E+03
 0.88644009489E+02 0.81614669523E+02 0.72437186350E+02 0.62329983482E+02 0.52360668480E+02
 0.43263710084E+02 0.35438289795E+02 0.29004412546E+02 0.23884895130E+02 0.19661901324E+02
 0.16800654257E+02 0.14547547749E+02 0.12842632523E+02 0.11607507095E+02 0.10749284033E+02
 0.10206667921E+02 0.99389779793E+01 0.99282597946E+01 0.10174707964E+02 0.10695524312E+02
 0.11532143250E+02 0.12744164926E+02 0.14425231801E+02 0.16652945864E+02 0.19491678883E+02
 0.23663193200E+02 0.28740937486E+02 0.35125973424E+02 0.42904876793E+02 0.51964039585E+02
 0.61917745063E+02 0.72043118821E+02 0.81283809063E+02 0.88421713954E+02 0.92360487403E+02
 0.92438811403E+02 0.58935872728E+02 0.54999301716E+02 0.49774772672E+02 0.43894954478E+02
 0.37938098099E+02 0.32353782705E+02 0.27411260098E+02 0.23192871527E+02 0.19516687477E+02
 0.16901447678E+02 0.14756326307E+02 0.13061417378E+02 0.11770294985E+02 0.10814831555E+02
 0.10140552735E+02 0.97075908856E+01 0.94914824800E+01 0.94800303946E+01 0.96733968432E+01
 0.10084510154E+02 0.10737341748E+02 0.11672467155E+02 0.12943315946E+02 0.14619281622E+02
 0.16746061699E+02 0.19347251457E+02 0.22988832516E+02 0.27185572690E+02 0.32108239188E+02
 0.37679277459E+02 0.43636452847E+02 0.49536422997E+02 0.54804401915E+02 0.58807419338E+02
 0.60995685040E+02 0.61040605524E+02 0.40696748889E+02 0.38449645508E+02 0.35429400038E+02
 0.31968655257E+02 0.28387207924E+02 0.24922448430E+02 0.21315070710E+02 0.18838575850E+02
 0.16599550754E+02 0.14693738418E+02 0.13121984288E+02 0.11870608420E+02 0.10897851348E+02
 0.10163871268E+02 0.96364415674E+01 0.92927329680E+01 0.91178385212E+01 0.91049240748E+01
 0.92543689214E+01 0.95737669619E+01 0.10079167514E+02 0.10793353284E+02 0.11749080388E+02
 0.12985277798E+02 0.14545012961E+02 0.16441363427E+02 0.18675457454E+02 0.21152183437E+02
 0.24739833939E+02 0.28206390995E+02 0.31796813504E+02 0.35276489750E+02 0.38328147048E+02
 0.40618105219E+02 0.41857988574E+02 0.41885204098E+02 0.29399693359E+02 0.28096736560E+02
 0.26312426278E+02 0.24219755061E+02 0.22000791328E+02 0.19628269464E+02 0.17724285690E+02
 0.15938802790E+02 0.14359674997E+02 0.12997150349E+02 0.11865868721E+02 0.10945369858E+02
 0.10213944266E+02 0.96509185080E+01 0.92396125890E+01 0.89671141062E+01 0.88251319727E+01
 0.88097500817E+01 0.89218497633E+01 0.91666554855E+01 0.95532680483E+01 0.10095745999E+02
 0.10810914024E+02 0.11720001572E+02 0.12843549369E+02 0.14202724416E+02 0.15782391779E+02
 0.17571969492E+02 0.19486245161E+02 0.21420156632E+02 0.24092266020E+02 0.26204677547E+02
 0.28014376175E+02 0.29347780409E+02 0.30065055159E+02 0.30082811125E+02 0.22245852462E+02
 0.21097372844E+02 0.20150642392E+02 0.18993174081E+02 0.17692541725E+02 0.16337919334E+02
 0.15025980457E+02 0.13805309168E+02 0.12700775388E+02 0.11745031006E+02 0.10930530058E+02
 0.10253302411E+02 0.97038647189E+01 0.92729445585E+01 0.89520234054E+01 0.87348390402E+01
 0.86175360023E+01 0.85988728835E+01 0.86796580167E+01 0.88632422937E+01 0.91554167503E+01
 0.95633932886E+01 0.10096563824E+02 0.10763857975E+02 0.11575096657E+02 0.12532765341E+02
 0.13643961925E+02 0.14875702735E+02 0.16200861396E+02 0.17572042360E+02 0.18892335875E+02
 0.20070908407E+02 0.21039431754E+02 0.22207337069E+02 0.22638323352E+02 0.22651379856E+02
 0.17643782388E+02 0.17183184340E+02 0.16533033594E+02 0.15746757704E+02 0.14884224181E+02
 0.13994932882E+02 0.13112207159E+02 0.12277930714E+02 0.11523831892E+02 0.10848659567E+02
 0.10263210100E+02 0.97653808156E+01 0.93530115475E+01 0.90226841748E+01 0.87713879730E+01
 0.85968271112E+01 0.84977857433E+01 0.84742433471E+01 0.85278993790E+01 0.86612431030E+01
 0.88775437728E+01 0.91810057464E+01 0.95754157129E+01 0.10064758690E+02 0.10649925823E+02
 0.11332455521E+02 0.12099699733E+02 0.12951005370E+02 0.13854394334E+02 0.14765446383E+02
 0.15649838501E+02 0.16458103599E+02 0.17130136708E+02 0.17612273643E+02 0.17867687600E+02
 0.17878123429E+02 0.14723128928E+02 0.14434413421E+02 0.14026068351E+02 0.13525395025E+02
 0.12962308442E+02 0.12371678275E+02 0.11790657616E+02 0.11235408795E+02 0.10712280383E+02
 0.10240954960E+02 0.98211745131E+01 0.94567971770E+01 0.91480348713E+01 0.88945931562E+01
 0.86961231047E+01 0.85527804737E+01 0.84655104682E+01 0.84359336739E+01 0.84656079055E+01
 0.85568458376E+01 0.87120123515E+01 0.89329894741E+01 0.92214750299E+01 0.95774787775E+01
 0.10000596861E+02 0.10484727686E+02 0.11028124021E+02 0.11608796402E+02 0.12217013568E+02
 0.12835739044E+02 0.13426289622E+02 0.13952416388E+02 0.14383862642E+02 0.14693630056E+02
 0.14859594779E+02 0.14869284835E+02 0.12785318320E+02 0.12602292650E+02 0.12341287910E+02
 0.12022780352E+02 0.11669200918E+02 0.11297538554E+02 0.10916418385E+02 0.10542521853E+02
 0.10193239053E+02 0.98662683259E+01 0.95703104531E+01 0.93063083103E+01 0.90758889786E+01
 0.88803999434E+01 0.87213403888E+01 0.86005606778E+01 0.85200566731E+01 0.84820757839E+01
 0.84895988062E+01 0.85447927427E+01 0.86495032211E+01 0.88050233102E+01 0.90113156751E+01
 0.92675890704E+01 0.95702196389E+01 0.99163756244E+01 0.10294025911E+02 0.10701913866E+02
 0.11120130018E+02 0.11528040221E+02 0.11915048412E+02 0.12263377178E+02 0.12550307616E+02
 0.12755806439E+02 0.12866392951E+02 0.12875938425E+02 0.11504154248E+02 0.11398629440E+02
 0.11246483148E+02 0.11056366282E+02 0.10837149471E+02 0.10601019934E+02 0.10364131629E+02
 0.10131644146E+02 0.99018810951E+01 0.96864084327E+01 0.94835037021E+01 0.92961003110E+01
 0.91257092243E+01 0.89740253140E+01 0.88433490994E+01 0.87365622369E+01 0.86573139163E+01
 0.86093577441E+01 0.85954368011E+01 0.86186527572E+01 0.86809724471E+01 0.87831721407E+01
 0.89250385362E+01 0.91043817244E+01 0.93187173217E+01 0.95613510439E+01 0.98298276054E+01
 0.10107894250E+02 0.10392007875E+02 0.10674284313E+02 0.10935548588E+02 0.11161677565E+02
 0.11343529704E+02 0.11473381539E+02 0.11544931880E+02 0.11554777116E+02 0.10691413947E+02
 0.10632253479E+02 0.10545596654E+02 0.10439254245E+02 0.10321698606E+02 0.10197537392E+02
 0.10065343108E+02 0.99295998831E+01 0.97988238855E+01 0.96666250733E+01 0.95370467438E+01
 0.94094306995E+01 0.92848151005E+01 0.91654152570E+01 0.90543770445E+01 0.89556875467E+01
 0.88734354370E+01 0.88120714669E+01 0.87767578917E+01 0.87705434248E+01 0.87959051516E+01
 0.88539452760E+01 0.89439371711E+01 0.90643050699E+01 0.92105205593E+01 0.93792190917E+01
 0.95606976542E+01 0.97552953464E+01 0.99491425600E+01 0.10131524580E+02 0.10300658350E+02
 0.10450385027E+02 0.10571942395E+02 0.10658670629E+02 0.10707215086E+02 0.10717563859E+02
 0.10184221682E+02 0.10164478897E+02 0.10134587960E+02 0.10096621158E+02 0.10051346663E+02
 0.10001381006E+02 0.99523190561E+01 0.99028877081E+01 0.98450630134E+01 0.97833537355E+01
 0.97124487503E+01 0.96323555627E+01 0.95435048675E+01 0.94475777041E+01 0.93480315220E+01
 0.92498882050E+01 0.91596514841E+01 0.90833490056E+01 0.90253297290E+01 0.89910584671E+01
 0.89833728481E+01 0.90035254393E+01 0.90513843820E+01 0.91239684645E+01 0.92188445772E+01
 0.93299404739E+01 0.94547155236E+01 0.95800913038E+01 0.97060690352E+01 0.98290401018E+01
 0.99382135091E+01 0.10028310836E+02 0.10098536478E+02 0.10148845547E+02 0.10179389059E+02
 0.10190356525E+02 0.99104322847E+01 0.99160557231E+01 0.99226760477E+01 0.99332117335E+01
 0.99502274945E+01 0.99717695257E+01 0.99914314608E+01 0.10005364235E+02 0.10014721501E+02
 0.10008745770E+02 0.99868443635E+01 0.99455671192E+01 0.98842168421E+01 0.98049799204E+01
 0.97120490068E+01 0.96110676275E+01 0.95082846655E+01 0.94120533353E+01 0.93309509560E+01
 0.92688904747E+01 0.92305032934E+01 0.92176976933E+01 0.92294702368E+01 0.92650815408E+01
 0.93192448692E+01 0.93874970325E+01 0.94616708790E+01 0.95432333827E+01 0.96211543823E+01
 0.96894561335E+01 0.97503082297E+01 0.98027821259E+01 0.98440102372E+01 0.98730312710E+01
 0.98914278801E+01 0.99031399871E+01 0.97858664869E+01 0.98169233388E+01 0.98611468365E+01
 0.99181881938E+01 0.99841879302E+01 0.10057872388E+02 0.10136657845E+02 0.10213558701E+02
 0.10276463973E+02 0.10323750505E+02 0.10345233204E+02 0.10336743517E+02 0.10296861641E+02
 0.10226963321E+02 0.10132488345E+02 0.10021799264E+02 0.99046737595E+01 0.97880083125E+01
 0.96799850337E+01 0.95908018289E+01 0.95234739950E+01 0.94804227381E+01 0.94630267168E+01
 0.94664929878E+01 0.94873147650E+01 0.95212508820E+01 0.95653710700E+01 0.96070657760E+01
 0.96472558139E+01 0.96840767767E+01 0.97109597856E+01 0.97274170867E+01 0.97375948077E+01
 0.97456623204E+01 0.97543389146E+01 0.97659029844E+01 0.97805724245E+01 0.98290116654E+01
 0.98988762404E+01 0.99901792311E+01 0.10104276918E+02 0.10232630620E+02 0.10364485170E+02
 0.10493346419E+02 0.10612356240E+02 0.10704083472E+02 0.10762425515E+02 0.10781547800E+02
 0.10758726928E+02 0.10696030319E+02 0.10597758755E+02 0.10472496596E+02 0.10332073746E+02
 0.10191946641E+02 0.10059204122E+02 0.99407458503E+01 0.98457647194E+01 0.97766688501E+01
 0.97313979308E+01 0.97084908196E+01 0.97061178982E+01 0.97163362529E+01 0.97292110713E+01
 0.97458091751E+01 0.97572468488E+01 0.97599605852E+01 0.97581864618E+01 0.97530534463E+01
 0.97451564430E+01 0.97381398352E+01 0.97389344527E+01 0.97522943047E+01 0.98401944770E+01
 0.99074529343E+01 0.10006104982E+02 0.10135528626E+02 0.10287876731E+02 0.10456886385E+02
 0.10641376718E+02 0.10823822193E+02 0.10984469816E+02 0.11116796891E+02 0.11208327190E+02
 0.11250734987E+02 0.11241249093E+02 0.11180785988E+02 0.11077183670E+02 0.10939144178E+02
 0.10778099993E+02 0.10607241170E+02 0.10447134968E+02 0.10302614516E+02 0.10180770203E+02
 0.10086170400E+02 0.10017496004E+02 0.99767814108E+01 0.99524718492E+01 0.99381290730E+01
 0.99313138915E+01 0.99219829658E+01 0.99103841729E+01 0.98957758197E+01 0.98731567419E+01
 0.98456548271E+01 0.98185047655E+01 0.97977870282E+01 0.97888282805E+01 0.98016541533E+01
 0.99502526747E+01 0.10030503147E+02 0.10148814533E+02 0.10305501579E+02 0.10494498423E+02
 0.10714135539E+02 0.10942227378E+02 0.11163299214E+02 0.11369377885E+02 0.11540391762E+02
 0.11663582795E+02 0.11727783821E+02 0.11727362856E+02 0.11664949305E+02 0.11548761243E+02
 0.11393123885E+02 0.11212062482E+02 0.11017881620E+02 0.10825419063E+02 0.10655587833E+02
 0.10509296803E+02 0.10390801289E+02 0.10306303799E+02 0.10244857375E+02 0.10201491503E+02
 0.10172119462E+02 0.10148135271E+02 0.10126993231E+02 0.10098829100E+02 0.10059984277E+02
 0.10017022676E+02 0.99735033767E+01 0.99349323285E+01 0.99062315423E+01 0.98941612802E+01
 0.99048838341E+01 0.10068540453E+02 0.10164115939E+02 0.10306007728E+02 0.10490356935E+02
 0.10713129586E+02 0.10964952240E+02 0.11230150394E+02 0.11495972271E+02 0.11739662883E+02
 0.11947798723E+02 0.12098802829E+02 0.12180969271E+02 0.12187985317E+02 0.12122127600E+02
 0.11992171056E+02 0.11815304439E+02 0.11610172405E+02 0.11394098510E+02 0.11176752888E+02
 0.10979540345E+02 0.10811427057E+02 0.10675218569E+02 0.10573007649E+02 0.10494644367E+02
 0.10439272921E+02 0.10398757213E+02 0.10367134873E+02 0.10329712261E+02 0.10287557867E+02
 0.10239027991E+02 0.10181772821E+02 0.10119920897E+02 0.10063797849E+02 0.10023161368E+02
 0.10006406539E+02 0.10018074177E+02 0.10191153266E+02 0.10295651455E+02 0.10450618521E+02
 0.10653269625E+02 0.10906313437E+02 0.11191772492E+02 0.11489921192E+02 0.11787477583E+02
 0.12069476879E+02 0.12306172662E+02 0.12479713483E+02 0.12576030126E+02 0.12588678660E+02
 0.12519588045E+02 0.12377955356E+02 0.12181073329E+02 0.11952282112E+02 0.11713792198E+02
 0.11477370417E+02 0.11256541220E+02 0.11069408558E+02 0.10919081170E+02 0.10800579911E+02
 0.10710980692E+02 0.10647501934E+02 0.10601381113E+02 0.10557895250E+02 0.10514939784E+02
 0.10462037925E+02 0.10397766221E+02 0.10327731179E+02 0.10257458429E+02 0.10192836350E+02
 0.10144934101E+02 0.10124178025E+02 0.10137742210E+02 0.10284894652E+02 0.10398805306E+02
 0.10568774634E+02 0.10791469823E+02 0.11064828023E+02 0.11366784072E+02 0.11691333511E+02
 0.12021307948E+02 0.12326473842E+02 0.12585202368E+02 0.12774898279E+02 0.12880974102E+02
 0.12897896079E+02 0.12826222457E+02 0.12676520803E+02 0.12464995284E+02 0.12216997581E+02
 0.11958152535E+02 0.11707003206E+02 0.11469292419E+02 0.11267278446E+02 0.11105659610E+02
 0.10974737190E+02 0.10879039108E+02 0.10810500446E+02 0.10757574492E+02 0.10709960757E+02
 0.10655952637E+02 0.10595272301E+02 0.10528346248E+02 0.10451443841E+02 0.10370828915E+02
 0.10295277317E+02 0.10238757284E+02 0.10212617170E+02 0.10227343469E+02 0.10352950373E+02
 0.10469602319E+02 0.10643743977E+02 0.10874634537E+02 0.11161218932E+02 0.11481922132E+02
 0.11823851293E+02 0.12167222549E+02 0.12491280879E+02 0.12762191555E+02 0.12961816063E+02
 0.13074206619E+02 0.13093258878E+02 0.13019953348E+02 0.12864914941E+02 0.12644404810E+02
 0.12384542718E+02 0.12112562795E+02 0.11850687917E+02 0.11603222505E+02 0.11391791766E+02
 0.11222293135E+02 0.11084949367E+02 0.10985346060E+02 0.10913292503E+02 0.10857781960E+02
 0.10803158375E+02 0.10748868360E+02 0.10683806646E+02 0.10607441900E+02 0.10524875299E+02
 0.10442567231E+02 0.10365719101E+02 0.10306821480E+02 0.10278552424E+02 0.10293368158E+02
 0.10371183780E+02 0.10491101934E+02 0.10670815604E+02 0.10908454703E+02 0.11198425427E+02
 0.11519073526E+02 0.11866722651E+02 0.12220345878E+02 0.12546737212E+02 0.12822768254E+02
 0.13025640866E+02 0.13139880235E+02 0.13159872829E+02 0.13085943640E+02 0.12929338708E+02
 0.12705997643E+02 0.12441958024E+02 0.12165091098E+02 0.11899712915E+02 0.11648948619E+02
 0.11434303082E+02 0.11262176381E+02 0.11122365966E+02 0.11021864173E+02 0.10948910254E+02
 0.10890849775E+02 0.10837604663E+02 0.10777887696E+02 0.10711310352E+02 0.10638246364E+02
 0.10555161234E+02 0.10468576029E+02 0.10387271861E+02 0.10325275108E+02 0.10295182819E+02
 0.10310037191E+02 0.10352950373E+02 0.10469602319E+02 0.10643743977E+02 0.10874634537E+02
 0.11161218932E+02 0.11481922132E+02 0.11823851293E+02 0.12167222549E+02 0.12491280879E+02
 0.12762191555E+02 0.12961816063E+02 0.13074206619E+02 0.13093258878E+02 0.13019953348E+02
 0.12864914941E+02 0.12644404810E+02 0.12384542718E+02 0.12112562795E+02 0.11850687917E+02
 0.11603222505E+02 0.11391791766E+02 0.11222293135E+02 0.11084949367E+02 0.10985346060E+02
 0.10913292503E+02 0.10857781960E+02 0.10803158375E+02 0.10748868360E+02 0.10683806646E+02
 0.10607441900E+02 0.10524875299E+02 0.10442567231E+02 0.10365719101E+02 0.10306821480E+02
 0.10278552424E+02 0.10293368158E+02 0.10284894652E+02 0.10398805306E+02 0.10568774634E+02
 0.10791469823E+02 0.11064828023E+02 0.11366784072E+02 0.11691333511E+02 0.12021307948E+02
 0.12326473842E+02 0.12585202368E+02 0.12774898279E+02 0.12880974102E+02 0.12897896079E+02
 0.12826222457E+02 0.12676520803E+02 0.12464995284E+02 0.12216997581E+02 0.11958152535E+02
 0.11707003206E+02 0.11469292419E+02 0.11267278446E+02 0.11105659610E+02 0.10974737190E+02
 0.10879039108E+02 0.10810500446E+02 0.10757574492E+02 0.10709960757E+02 0.10655952637E+02
 0.10595272301E+02 0.10528346248E+02 0.10451443841E+02 0.10370828915E+02 0.10295277317E+02
 0.10238757284E+02 0.10212617170E+02 0.10227343469E+02 0.10191153266E+02 0.10295651455E+02
 0.10450618521E+02 0.10653269625E+02 0.10906313437E+02 0.11191772492E+02 0.11489921192E+02
 0.11787477583E+02 0.12069476879E+02 0.12306172662E+02 0.12479713483E+02 0.12576030126E+02
 0.12588678660E+02 0.12519588045E+02 0.12377955356E+02 0.12181073329E+02 0.11952282112E+02
 0.11713792198E+02 0.11477370417E+02 0.11256541220E+02 0.11069408558E+02 0.10919081170E+02
 0.10800579911E+02 0.10710980692E+02 0.10647501934E+02 0.10601381113E+02 0.10557895250E+02
 0.10514939784E+02 0.10462037925E+02 0.10397766221E+02 0.10327731179E+02 0.10257458429E+02
 0.10192836350E+02 0.10144934101E+02 0.10124178025E+02 0.10137742210E+02 0.10068540453E+02
 0.10164115939E+02 0.10306007728E+02 0.10490356935E+02 0.10713129586E+02 0.10964952240E+02
 0.11230150394E+02 0.11495972271E+02 0.11739662883E+02 0.11947798723E+02 0.12098802829E+02
 0.12180969271E+02 0.12187985317E+02 0.12122127600E+02 0.11992171056E+02 0.11815304439E+02
 0.11610172405E+02 0.11394098510E+02 0.11176752888E+02 0.10979540345E+02 0.10811427057E+02
 0.10675218569E+02 0.10573007649E+02 0.10494644367E+02 0.10439272921E+02 0.10398757213E+02
 0.10367134873E+02 0.10329712261E+02 0.10287557867E+02 0.10239027991E+02 0.10181772821E+02
 0.10119920897E+02 0.10063797849E+02 0.10023161368E+02 0.10006406539E+02 0.10018074177E+02
 0.99502526747E+01 0.10030503147E+02 0.10148814533E+02 0.10305501579E+02 0.10494498423E+02
 0.10714135539E+02 0.10942227378E+02 0.11163299214E+02 0.11369377885E+02 0.11540391762E+02
 0.11663582795E+02 0.11727783821E+02 0.11727362856E+02 0.11664949305E+02 0.11548761243E+02
 0.11393123885E+02 0.11212062482E+02 0.11017881620E+02 0.10825419063E+02 0.10655587833E+02
 0.10509296803E+02 0.10390801289E+02 0.10306303799E+02 0.10244857375E+02 0.10201491503E+02
 0.10172119462E+02 0.10148135271E+02 0.10126993231E+02 0.10098829100E+02 0.10059984277E+02
 0.10017022676E+02 0.99735033767E+01 0.99349323285E+01 0.99062315423E+01 0.98941612802E+01
 0.99048838341E+01 0.98401944770E+01 0.99074529343E+01 0.10006104982E+02 0.10135528626E+02
 0.10287876731E+02 0.10456886385E+02 0.10641376718E+02 0.10823822193E+02 0.10984469816E+02
 0.11116796891E+02 0.11208327190E+02 0.11250734987E+02 0.11241249093E+02 0.11180785988E+02
 0.11077183670E+02 0.10939144178E+02 0.10778099993E+02 0.10607241170E+02 0.10447134968E+02
 0.10302614516E+02 0.10180770203E+02 0.10086170400E+02 0.10017496004E+02 0.99767814108E+01
 0.99524718492E+01 0.99381290730E+01 0.99313138915E+01 0.99219829658E+01 0.99103841729E+01
 0.98957758197E+01 0.98731567419E+01 0.98456548271E+01 0.98185047655E+01 0.97977870282E+01
 0.97888282805E+01 0.98016541533E+01 0.97805724245E+01 0.98290116654E+01 0.98988762404E+01
 0.99901792311E+01 0.10104276918E+02 0.10232630620E+02 0.10364485170E+02 0.10493346419E+02
 0.10612356240E+02 0.10704083472E+02 0.10762425515E+02 0.10781547800E+02 0.10758726928E+02
 0.10696030319E+02 0.10597758755E+02 0.10472496596E+02 0.10332073746E+02 0.10191946641E+02
 0.10059204122E+02 0.99407458503E+01 0.98457647194E+01 0.97766688501E+01 0.97313979308E+01
 0.97084908196E+01 0.97061178982E+01 0.97163362529E+01 0.97292110713E+01 0.97458091751E+01
 0.97572468488E+01 0.97599605852E+01 0.97581864618E+01 0.97530534463E+01 0.97451564430E+01
 0.97381398352E+01 0.97389344527E+01 0.97522943047E+01 0.97858664869E+01 0.98169233388E+01
 0.98611468365E+01 0.99181881938E+01 0.99841879302E+01 0.10057872388E+02 0.10136657845E+02
 0.10213558701E+02 0.10276463973E+02 0.10323750505E+02 0.10345233204E+02 0.10336743517E+02
 0.10296861641E+02 0.10226963321E+02 0.10132488345E+02 0.10021799264E+02 0.99046737595E+01
 0.97880083125E+01 0.96799850337E+01 0.95908018289E+01 0.95234739950E+01 0.94804227381E+01
 0.94630267168E+01 0.94664929878E+01 0.94873147650E+01 0.95212508820E+01 0.95653710700E+01
 0.96070657760E+01 0.96472558139E+01 0.96840767767E+01 0.97109597856E+01 0.97274170867E+01
 0.97375948077E+01 0.97456623204E+01 0.97543389146E+01 0.97659029844E+01 0.99104322847E+01
 0.99160557231E+01 0.99226760477E+01 0.99332117335E+01 0.99502274945E+01 0.99717695257E+01
 0.99914314608E+01 0.10005364235E+02 0.10014721501E+02 0.10008745770E+02 0.99868443635E+01
 0.99455671192E+01 0.98842168421E+01 0.98049799204E+01 0.97120490068E+01 0.96110676275E+01
 0.95082846655E+01 0.94120533353E+01 0.93309509560E+01 0.92688904747E+01 0.92305032934E+01
 0.92176976933E+01 0.92294702368E+01 0.92650815408E+01 0.93192448692E+01 0.93874970325E+01
 0.94616708790E+01 0.95432333827E+01 0.96211543823E+01 0.96894561335E+01 0.97503082297E+01
 0.98027821259E+01 0.98440102372E+01 0.98730312710E+01 0.98914278801E+01 0.99031399871E+01
 0.10184221682E+02 0.10164478897E+02 0.10134587960E+02 0.10096621158E+02 0.10051346663E+02
 0.10001381006E+02 0.99523190561E+01 0.99028877081E+01 0.98450630134E+01 0.97833537355E+01
 0.97124487503E+01 0.96323555627E+01 0.95435048675E+01 0.94475777041E+01 0.93480315220E+01
 0.92498882050E+01 0.91596514841E+01 0.90833490056E+01 0.90253297290E+01 0.89910584671E+01
 0.89833728481E+01 0.90035254393E+01 0.90513843820E+01 0.91239684645E+01 0.92188445772E+01
 0.93299404739E+01 0.94547155236E+01 0.95800913038E+01 0.97060690352E+01 0.98290401018E+01
 0.99382135091E+01 0.10028310836E+02 0.10098536478E+02 0.10148845547E+02 0.10179389059E+02
 0.10190356525E+02 0.10691413947E+02 0.10632253479E+02 0.10545596654E+02 0.10439254245E+02
 0.10321698606E+02 0.10197537392E+02 0.10065343108E+02 0.99295998831E+01 0.97988238855E+01
 0.96666250733E+01 0.95370467438E+01 0.94094306995E+01 0.92848151005E+01 0.91654152570E+01
 0.90543770445E+01 0.89556875467E+01 0.88734354370E+01 0.88120714669E+01 0.87767578917E+01
 0.87705434248E+01 0.87959051516E+01 0.88539452760E+01 0.89439371711E+01 0.90643050699E+01
 0.92105205593E+01 0.93792190917E+01 0.95606976542E+01 0.97552953464E+01 0.99491425600E+01
 0.10131524580E+02 0.10300658350E+02 0.10450385027E+02 0.10571942395E+02 0.10658670629E+02
 0.10707215086E+02 0.10717563859E+02 0.11504154248E+02 0.11398629440E+02 0.11246483148E+02
 0.11056366282E+02 0.10837149471E+02 0.10601019934E+02 0.10364131629E+02 0.10131644146E+02
 0.99018810951E+01 0.96864084327E+01 0.94835037021E+01 0.92961003110E+01 0.91257092243E+01
 0.89740253140E+01 0.88433490994E+01 0.87365622369E+01 0.86573139163E+01 0.86093577441E+01
 0.85954368011E+01 0.86186527572E+01 0.86809724471E+01 0.87831721407E+01 0.89250385362E+01
 0.91043817244E+01 0.93187173217E+01 0.95613510439E+01 0.98298276054E+01 0.10107894250E+02
 0.10392007875E+02 0.10674284313E+02 0.10935548588E+02 0.11161677565E+02 0.11343529704E+02
 0.11473381539E+02 0.11544931880E+02 0.11554777116E+02 0.12785318320E+02 0.12602292650E+02
 0.12341287910E+02 0.12022780352E+02 0.11669200918E+02 0.11297538554E+02 0.10916418385E+02
 0.10542521853E+02 0.10193239053E+02 0.98662683259E+01 0.95703104531E+01 0.93063083103E+01
 0.90758889786E+01 0.88803999434E+01 0.87213403888E+01 0.86005606778E+01 0.85200566731E+01
 0.84820757839E+01 0.84895988062E+01 0.85447927427E+01 0.86495032211E+01 0.88050233102E+01
 0.90113156751E+01 0.92675890704E+01 0.95702196389E+01 0.99163756244E+01 0.10294025911E+02
 0.10701913866E+02 0.11120130018E+02 0.11528040221E+02 0.11915048412E+02 0.12263377178E+02
 0.12550307616E+02 0.12755806439E+02 0.12866392951E+02 0.12875938425E+02 0.14723128928E+02
 0.14434413421E+02 0.14026068351E+02 0.13525395025E+02 0.12962308442E+02 0.12371678275E+02
 0.11790657616E+02 0.11235408795E+02 0.10712280383E+02 0.10240954960E+02 0.98211745131E+01
 0.94567971770E+01 0.91480348713E+01 0.88945931562E+01 0.86961231047E+01 0.85527804737E+01
 0.84655104682E+01 0.84359336739E+01 0.84656079055E+01 0.85568458376E+01 0.87120123515E+01
 0.89329894741E+01 0.92214750299E+01 0.95774787775E+01 0.10000596861E+02 0.10484727686E+02
 0.11028124021E+02 0.11608796402E+02 0.12217013568E+02 0.12835739044E+02 0.13426289622E+02
 0.13952416388E+02 0.14383862642E+02 0.14693630056E+02 0.14859594779E+02 0.14869284835E+02
 0.17643782388E+02 0.17183184340E+02 0.16533033594E+02 0.15746757704E+02 0.14884224181E+02