unknown system                          
   1.00000000000000     
     1.269537    1.453020    1.453020
     0.000000    2.850141   -2.850141
    -4.119474    1.616072    1.616072
   Fe
     4
Direct
  0.457638  0.000000  0.486607
  0.292362  0.500000  0.763393
  0.957638  0.000000  0.986607
  0.792362  0.500000  0.263393
 
   36   60   72
 0.15536270596E+05 0.33182780492E+04 0.67013708787E+03 0.26618738060E+03 0.16229768660E+03
 0.97967373575E+02 0.54836703461E+02 0.29024878290E+02 0.14830209386E+02 0.74154941060E+01
 0.36604704547E+01 0.17935523817E+01 0.87593176271E+00 0.42848757028E+00 0.21272512689E+00
 0.11220642545E+00 0.72416523967E-01 0.71725249994E-01 0.10980385053E+00 0.20725039162E+00
 0.41704751852E+00 0.85229985550E+00 0.17452209401E+01 0.35625956919E+01 0.72199480494E+01
 0.14448140547E+02 0.28306642846E+02 0.53569527718E+02 0.95950415076E+02 0.15940795593E+03
 0.26031570286E+03 0.63728784055E+03 0.31096118528E+04 0.14786545006E+05 0.37131439653E+05
 0.37899936600E+05 0.10161255310E+05 0.23812799078E+04 0.55977595134E+03 0.24989833621E+03
 0.15548722637E+03 0.93930894581E+02 0.52635838649E+02 0.27922097073E+02 0.14304300881E+02
 0.71715276490E+01 0.35487867518E+01 0.17427177904E+01 0.85285166949E+00 0.41798397363E+00
 0.20785054111E+00 0.10982454421E+00 0.70970392122E-01 0.70294376495E-01 0.10747916373E+00
 0.20251489006E+00 0.40685231199E+00 0.82991111488E+00 0.16958891566E+01 0.34542425592E+01
 0.69831563758E+01 0.13937264913E+02 0.27233830340E+02 0.51423035383E+02 0.91998501636E+02
 0.15273494251E+03 0.24486026166E+03 0.53575165239E+03 0.22418958302E+04 0.96941567176E+04
 0.23310780786E+05 0.23710657608E+05 0.32640905202E+04 0.10230376709E+04 0.37166502165E+03
 0.21241182715E+03 0.13688528179E+03 0.82811659167E+02 0.46584018449E+02 0.24880954911E+02
 0.12847267156E+02 0.64918608372E+01 0.32360006284E+01 0.15995327403E+01 0.78758301838E+00
 0.38812441368E+00 0.19394797122E+00 0.10299669955E+00 0.66809681004E-01 0.66182321672E-01
 0.10081245466E+00 0.18900562753E+00 0.37786039359E+00 0.76658499928E+00 0.15569762294E+01
 0.31507252711E+01 0.63231996150E+01 0.12521610277E+02 0.24274634467E+02 0.45520699449E+02
 0.81113723958E+02 0.13448588886E+03 0.20887003273E+03 0.36123469476E+03 0.97736057074E+03
 0.31394262173E+04 0.65850054562E+04 0.66831389067E+04 0.80480190707E+03 0.41513754551E+03
 0.24902836990E+03 0.16900837058E+03 0.11084645083E+03 0.67209962085E+02 0.38105782746E+02
 0.20592099082E+02 0.10770644212E+02 0.55117237166E+01 0.27800861860E+01 0.13892370203E+01
 0.69057608318E+00 0.34340372945E+00 0.17298109002E+00 0.92615869157E-01 0.60451594033E-01
 0.59896337766E-01 0.90672896844E-01 0.16863064794E+00 0.33442432852E+00 0.67236264491E+00
 0.13528919949E+01 0.27078790928E+01 0.53710667061E+01 0.10502765607E+02 0.20099987163E+02
 0.37250737896E+02 0.65844582576E+02 0.10890956254E+03 0.16651830069E+03 0.24512147094E+03
 0.40550997660E+03 0.78541345155E+03 0.12765249206E+04 0.12895053566E+04 0.30476329856E+03
 0.23439106835E+03 0.17610882761E+03 0.12546255520E+03 0.82576586094E+02 0.50379681303E+02
 0.28937446611E+02 0.15899013826E+02 0.84624243998E+01 0.44044004793E+01 0.22568996959E+01
 0.11440568374E+01 0.57611465437E+00 0.28994745367E+00 0.14768765382E+00 0.79924349163E-01
 0.52616312572E-01 0.52151359837E-01 0.78270450492E-01 0.14404166937E+00 0.28247700547E+00
 0.56121234089E+00 0.11146606286E+01 0.21994965379E+01 0.42946627730E+01 0.82574555814E+01
 0.15529442912E+02 0.28304779136E+02 0.49375322619E+02 0.81141724059E+02 0.12366385778E+03
 0.17406378181E+03 0.23196114395E+03 0.30195580082E+03 0.36446578186E+03 0.36594596873E+03
 0.18327088722E+03 0.15433778787E+03 0.11998676190E+03 0.85887053505E+02 0.56806772568E+02
 0.35097037147E+02 0.20532215102E+02 0.11519242226E+02 0.62631846642E+01 0.33270088269E+01
 0.17374585666E+01 0.89630414218E+00 0.45859481027E+00 0.23411055501E+00 0.12093746796E+00
 0.66289099655E-01 0.44113949378E-01 0.43737382664E-01 0.64945254791E-01 0.11801866607E+00
 0.22819417965E+00 0.44700025522E+00 0.87378588209E+00 0.16944377715E+01 0.32465844452E+01
 0.61161824195E+01 0.11260521829E+02 0.20098713873E+02 0.34418498400E+02 0.55838604287E+02
 0.84662566231E+02 0.11864723107E+03 0.15309039274E+03 0.18233928850E+03 0.20009249229E+03
 0.20045066587E+03 0.11454380125E+03 0.96976734651E+02 0.75562973694E+02 0.54381039583E+02
 0.36416762961E+02 0.22926182307E+02 0.13719754807E+02 0.78861993695E+01 0.43921121694E+01
 0.23876921512E+01 0.12738956191E+01 0.67026562315E+00 0.34934067401E+00 0.18127372800E+00
 0.95189388958E-01 0.52958309003E-01 0.35686084293E-01 0.35387212933E-01 0.51918921896E-01
 0.92939948258E-01 0.17680483887E+00 0.34072164794E+00 0.65388953209E+00 0.12433437125E+01
 0.23319455043E+01 0.42929945583E+01 0.77161610416E+01 0.13442301264E+02 0.22501246215E+02
 0.35818004092E+02 0.53623719122E+02 0.74727553602E+02 0.96203964581E+02 0.11399424181E+03
 0.12419955079E+03 0.12439898228E+03 0.66407004215E+02 0.56402714725E+02 0.44267676928E+02
 0.32272962411E+02 0.22018973442E+02 0.14184503505E+02 0.87077701005E+01 0.51385904572E+01
 0.29370691510E+01 0.16363743594E+01 0.89364761623E+00 0.48041625589E+00 0.25537324828E+00
 0.13504890616E+00 0.72166349323E-01 0.40877933986E-01 0.27922282465E-01 0.27689925649E-01
 0.40104381527E-01 0.70497249468E-01 0.13181245338E+00 0.24923716292E+00 0.46906537197E+00
 0.87295957484E+00 0.15995718491E+01 0.28734791411E+01 0.50329873182E+01 0.85402218244E+01
 0.13934573504E+02 0.21674399361E+02 0.31843034421E+02 0.43794969551E+02 0.55963793091E+02
 0.66093286325E+02 0.71926398011E+02 0.72040509552E+02 0.36098158292E+02 0.30900023041E+02
 0.24560828780E+02 0.18224756018E+02 0.12710351301E+02 0.83956268347E+01 0.52935341528E+01
 0.32097530815E+01 0.18842194144E+01 0.10770812788E+01 0.60255098136E+00 0.33139568215E+00
 0.17985097372E+00 0.97040676788E-01 0.52849744988E-01 0.30520951697E-01 0.21156009019E-01
 0.20991793853E-01 0.29953890086E-01 0.51663104156E-01 0.94770498875E-01 0.17566411941E+00
 0.32381395903E+00 0.58912183742E+00 0.10539081079E+01 0.18453452732E+01 0.31470384294E+01
 0.51970854940E+01 0.82560179106E+01 0.12522923639E+02 0.17995642654E+02 0.24312733150E+02
 0.30671515018E+02 0.35935350281E+02 0.38961024848E+02 0.39020195601E+02 0.18801665329E+02
 0.16255592382E+02 0.13114635406E+02 0.99212416473E+01 0.70790246809E+01 0.47960731671E+01
 0.31059948491E+01 0.19348821953E+01 0.11664773281E+01 0.68431613228E+00 0.39237713409E+00
 0.22078617192E+00 0.12252179771E+00 0.67472375959E-01 0.37521808309E-01 0.22096506768E-01
 0.15564665147E-01 0.15445600802E-01 0.21695063169E-01 0.36696420355E-01 0.65929649535E-01
 0.11974646875E+00 0.21589773501E+00 0.38396409037E+00 0.67017803154E+00 0.11435173036E+01
 0.18989996615E+01 0.30525695754E+01 0.47209299685E+01 0.69810753768E+01 0.98044460196E+01
 0.12990758777E+02 0.16143145148E+02 0.18722291662E+02 0.20194487228E+02 0.20223221270E+02
 0.95318952889E+01 0.83270440148E+01 0.68199800700E+01 0.52589169030E+01 0.38373521665E+01
 0.26642169886E+01 0.17705853938E+01 0.11323229094E+01 0.70084409976E+00 0.42170130166E+00
 0.24774879300E+00 0.14272730967E+00 0.80974933178E-01 0.45588742053E-01 0.25903851062E-01
 0.15598696098E-01 0.11172687259E-01 0.11086245917E-01 0.15313958934E-01 0.25329028038E-01
 0.44553225617E-01 0.79169679640E-01 0.13965399968E+00 0.24261461190E+00 0.41335708390E+00
 0.68767831651E+00 0.11124134834E+01 0.17417592380E+01 0.26250313164E+01 0.37876030630E+01
 0.52012389551E+01 0.67600274272E+01 0.82735322997E+01 0.94944990663E+01 0.10185996418E+02
 0.10199439986E+02 0.47520078072E+01 0.41925360606E+01 0.34831468303E+01 0.27347050205E+01
 0.20376740788E+01 0.14479708529E+01 0.98624019727E+00 0.64674906252E+00 0.41049157808E+00
 0.25316069417E+00 0.15237817813E+00 0.89858813524E-01 0.52169224442E-01 0.30042377556E-01
 0.17477878799E-01 0.10778015325E-01 0.78637371915E-02 0.77975052483E-02 0.10563543456E-01
 0.17066254370E-01 0.29330936375E-01 0.50988806265E-01 0.87931580144E-01 0.14929197350E+00
 0.24831622932E+00 0.40311873489E+00 0.63592755998E+00 0.97107506354E+00 0.14279784485E+01
 0.20129741011E+01 0.27067014306E+01 0.34546620222E+01 0.41675432363E+01 0.47347336321E+01
 0.50533792104E+01 0.50595493644E+01 0.23449174050E+01 0.20874030258E+01 0.17573138325E+01
 0.14028102303E+01 0.10658768210E+01 0.77386626503E+00 0.53916465202E+00 0.36218628007E+00
 0.23540754899E+00 0.14873998634E+00 0.91688138706E-01 0.55378643217E-01 0.32934764712E-01
 0.19453972816E-01 0.11629510350E-01 0.73782979096E-02 0.54966686886E-02 0.54380136123E-02
 0.71939062703E-02 0.11292497570E-01 0.18915762238E-01 0.32106661147E-01 0.54122648783E-01
 0.89792029365E-01 0.14591881599E+00 0.23129237829E+00 0.35637649270E+00 0.53130373019E+00
 0.76378814962E+00 0.10537825179E+01 0.13894274143E+01 0.17439183239E+01 0.20758361586E+01
 0.23370080873E+01 0.24821371390E+01 0.24849443448E+01 0.11500390018E+01 0.10324786247E+01
 0.87942352003E+00 0.71270831125E+00 0.55112803228E+00 0.40827541496E+00 0.29065630004E+00
 0.19959235240E+00 0.13283007470E+00 0.85938364301E-01 0.54299794100E-01 0.33649920971E-01
 0.20576168653E-01 0.12533968253E-01 0.77622951211E-02 0.51131098382E-02 0.39112984554E-02
 0.38450784425E-02 0.49137665504E-02 0.74235259344E-02 0.12037370807E-01 0.19889299036E-01
 0.32713345548E-01 0.53025426160E-01 0.84195144563E-01 0.13046115052E+00 0.19642614354E+00
 0.28655202531E+00 0.40320571415E+00 0.54521610193E+00 0.70631121372E+00 0.87317378621E+00
 0.10271721549E+01 0.11464470912E+01 0.12124714083E+01 0.12137440884E+01 0.56214708611E+00
 0.50836383552E+00 0.43782317766E+00 0.35984814208E+00 0.28290951837E+00 0.21337116585E+00
 0.15501479498E+00 0.10888125219E+00 0.74149777271E-01 0.49223067447E-01 0.31979779644E-01
 0.20457924126E-01 0.12983018498E-01 0.82713649289E-02 0.53989551461E-02 0.37538686922E-02
 0.29703532657E-02 0.28813116921E-02 0.34885004794E-02 0.49654145255E-02 0.76817769139E-02
 0.12244001377E-01 0.19567753930E-01 0.30917106924E-01 0.47952645636E-01 0.72614590226E-01
 0.10702063362E+00 0.15278381130E+00 0.21075681977E+00 0.27998964538E+00 0.35680025540E+00
 0.43491491057E+00 0.50592769194E+00 0.56051760736E+00 0.59050750711E+00 0.59108152282E+00
 0.27475914337E+00 0.25011269190E+00 0.21745936459E+00 0.18094273755E+00 0.14448856931E+00
 0.11106748997E+00 0.82381431057E-01 0.59190861474E-01 0.41447052357E-01 0.28389407426E-01
 0.19166894683E-01 0.12852194474E-01 0.86468995347E-02 0.59110361231E-02 0.41782310835E-02
 0.31318011136E-02 0.25819966388E-02 0.24444020745E-02 0.27302661092E-02 0.35397540222E-02
 0.50736026705E-02 0.76565474491E-02 0.11752207803E-01 0.17995092778E-01 0.27164022472E-01
 0.40173971472E-01 0.57860948559E-01 0.80981014122E-01 0.10960298522E+00 0.14298145381E+00
 0.17945283724E+00 0.21609167704E+00 0.24899859462E+00 0.27402739993E+00 0.28768161906E+00
 0.28793713364E+00 0.13432265964E+00 0.12310064954E+00 0.10814343567E+00 0.91225061936E-01
 0.74042038490E-01 0.57999166182E-01 0.44096670600E-01 0.32712143387E-01 0.23777492399E-01
 0.17115240815E-01 0.12295389151E-01 0.89099669052E-02 0.65738552718E-02 0.49771021174E-02
 0.38889615982E-02 0.31575323355E-02 0.26981746862E-02 0.24813675125E-02 0.25221617680E-02
 0.28844969701E-02 0.36811546994E-02 0.50791975425E-02 0.73155465934E-02 0.10689607803E-01
 0.15574154385E-01 0.22349718334E-01 0.31422757241E-01 0.42950330003E-01 0.56980617397E-01
 0.73144469285E-01 0.90448916944E-01 0.10749816602E+00 0.12260783266E+00 0.13401048879E+00
 0.14020136670E+00 0.14030848041E+00 0.66248591941E-01 0.61112207613E-01 0.54229457172E-01
 0.46417889144E-01 0.38491666572E-01 0.31082834729E-01 0.24541852183E-01 0.19100398274E-01
 0.14847376937E-01 0.11600048064E-01 0.92088895598E-02 0.74606663597E-02 0.61717914864E-02
 0.51948476439E-02 0.44292456207E-02 0.38164413042E-02 0.33329390251E-02 0.29847631015E-02
 0.28040545045E-02 0.28376277014E-02 0.31523339643E-02 0.38381102934E-02 0.50056754948E-02
 0.67977528739E-02 0.93667776040E-02 0.12890573195E-01 0.17473013672E-01 0.23253946213E-01
 0.30116175039E-01 0.37796352579E-01 0.45936498349E-01 0.53910581469E-01 0.60914376677E-01
 0.66142003412E-01 0.68950346714E-01 0.68984018547E-01 0.33193295929E-01 0.30943578903E-01
 0.27958492637E-01 0.24575173202E-01 0.21113036237E-01 0.17862759739E-01 0.15081611269E-01
 0.12836637860E-01 0.11053747726E-01 0.97205930854E-02 0.86969110596E-02 0.78770567794E-02
 0.71630262066E-02 0.64884970735E-02 0.58214703221E-02 0.51630842126E-02 0.45410486311E-02
 0.39963549324E-02 0.35723230964E-02 0.33195311751E-02 0.32856452104E-02 0.35173983572E-02
 0.40671670260E-02 0.49847262272E-02 0.63328148604E-02 0.81519987113E-02 0.10510104297E-01
 0.13346663002E-01 0.16669029182E-01 0.20375830907E-01 0.24184598368E-01 0.27797984578E-01
 0.30908884135E-01 0.33204831377E-01 0.34421435409E-01 0.34411941475E-01 0.17564747512E-01
 0.16635662165E-01 0.15449057672E-01 0.14183012079E-01 0.13016740530E-01 0.12063236132E-01
 0.11322926886E-01 0.10806633871E-01 0.10523699875E-01 0.10328922267E-01 0.10149195491E-01
 0.98852354542E-02 0.94741317380E-02 0.88920739931E-02 0.81557229461E-02 0.73137555488E-02
 0.64326736664E-02 0.55897523997E-02 0.48629572892E-02 0.43091599997E-02 0.39731813621E-02
 0.38842964438E-02 0.40552504878E-02 0.44962557234E-02 0.51992319709E-02 0.61675191284E-02
 0.73593769010E-02 0.88070584421E-02 0.10407635110E-01 0.12070166772E-01 0.13759610477E-01
 0.15359172108E-01 0.16708685859E-01 0.17666195887E-01 0.18138998575E-01 0.18095715935E-01
 0.10305525973E-01 0.10089564417E-01 0.99247606984E-02 0.98802446676E-02 0.99963402643E-02
 0.10305611700E-01 0.10847483825E-01 0.11556011795E-01 0.12270982828E-01 0.12918997120E-01
 0.13347051096E-01 0.13459585031E-01 0.13198891432E-01 0.12561698667E-01 0.11600477586E-01
 0.10413588639E-01 0.91284567066E-02 0.78686263701E-02 0.67372985471E-02 0.58235687916E-02
 0.51763535230E-02 0.48140402654E-02 0.47324581670E-02 0.48980514678E-02 0.52787615470E-02
 0.58198488570E-02 0.64952949142E-02 0.71998794849E-02 0.79427644114E-02 0.86957007678E-02
 0.93577264216E-02 0.98849681662E-02 0.10267550921E-01 0.10497276212E-01 0.10567981284E-01
 0.10488897729E-01 0.74479490212E-02 0.75995090419E-02 0.79834808907E-02 0.86626079956E-02
 0.96851765247E-02 0.11032482344E-01 0.12592719383E-01 0.14245916193E-01 0.15880798284E-01
 0.17261685697E-01 0.18234883764E-01 0.18655544454E-01 0.18452655773E-01 0.17641813449E-01
 0.16317751303E-01 0.14633404043E-01 0.12769622773E-01 0.10922552726E-01 0.92613750884E-02
 0.78909847188E-02 0.68810511419E-02 0.62478076767E-02 0.59600087991E-02 0.59714086193E-02
 0.61978040566E-02 0.65575905759E-02 0.69497636539E-02 0.73605783674E-02 0.76829007812E-02
 0.78705555077E-02 0.79655869182E-02 0.79762392856E-02 0.78993241792E-02 0.77536428049E-02
 0.75867355474E-02 0.74652643826E-02 0.66621154880E-02 0.71134664249E-02 0.79936484081E-02
 0.93399946532E-02 0.11134071258E-01 0.13338612549E-01 0.15877062337E-01 0.18565156390E-01
 0.21120132117E-01 0.23320419559E-01 0.24881631317E-01 0.25608894391E-01 0.25407330408E-01
 0.24300940780E-01 0.22437520890E-01 0.20056110938E-01 0.17437605702E-01 0.14832572888E-01
 0.12469486052E-01 0.10527350959E-01 0.90792460847E-02 0.81390238202E-02 0.76713275863E-02
 0.75729478822E-02 0.77310698608E-02 0.80315185534E-02 0.83775417294E-02 0.86132861288E-02
 0.87202239163E-02 0.86763838546E-02 0.84345346499E-02 0.80325157696E-02 0.75584856851E-02
 0.71048037491E-02 0.67486074153E-02 0.65676416185E-02 0.71606496208E-02 0.78304100882E-02
 0.90941100370E-02 0.11010136791E-01 0.13615929539E-01 0.16825702179E-01 0.20441044554E-01
 0.24230775857E-01 0.27896976733E-01 0.31007619604E-01 0.33227284308E-01 0.34286615868E-01
 0.34053156897E-01 0.32568628874E-01 0.30025920445E-01 0.26747538442E-01 0.23126715944E-01
 0.19569749895E-01 0.16358211811E-01 0.13700958244E-01 0.11727298799E-01 0.10445643757E-01
 0.97755873913E-02 0.95959884010E-02 0.97714301378E-02 0.10113940952E-01 0.10432535733E-01
 0.10649644503E-01 0.10635840506E-01 0.10348432258E-01 0.98539089682E-02 0.92068859069E-02
 0.84777738220E-02 0.77751407936E-02 0.72431284220E-02 0.70036912517E-02 0.81791332979E-02
 0.91000737577E-02 0.10829622094E-01 0.13435884687E-01 0.16890085107E-01 0.21101277373E-01
 0.25941793347E-01 0.31037313691E-01 0.35886442880E-01 0.40045184621E-01 0.43024713239E-01
 0.44454897368E-01 0.44161766229E-01 0.42196807882E-01 0.38845049235E-01 0.34532757206E-01
 0.29758623330E-01 0.25023894198E-01 0.20800890713E-01 0.17325912817E-01 0.14741422848E-01
 0.13062445815E-01 0.12182376685E-01 0.11971526930E-01 0.12169837929E-01 0.12548734097E-01
 0.12934730768E-01 0.13122842813E-01 0.13043263474E-01 0.12661056024E-01 0.11950732335E-01
 0.11008174064E-01 0.99761375012E-02 0.90126054338E-02 0.82719561422E-02 0.79471883767E-02
 0.96156212674E-02 0.10754293179E-01 0.12893991237E-01 0.16140278418E-01 0.20501332326E-01
 0.25925867702E-01 0.32066513192E-01 0.38490488933E-01 0.44711290094E-01 0.50047781462E-01
 0.53886266310E-01 0.55735324008E-01 0.55357605107E-01 0.52828322267E-01 0.48516139069E-01
 0.43006889171E-01 0.36959888508E-01 0.30976505694E-01 0.25588290524E-01 0.21212248285E-01
 0.17963536038E-01 0.15849070355E-01 0.14785595140E-01 0.14502776001E-01 0.14729528896E-01
 0.15216813394E-01 0.15688342191E-01 0.15961966966E-01 0.15844176762E-01 0.15272667015E-01
 0.14337031933E-01 0.13148264588E-01 0.11865916713E-01 0.10671677334E-01 0.97615505828E-02
 0.93313811210E-02 0.11029492166E-01 0.12419965435E-01 0.15040083491E-01 0.18986508448E-01
 0.24284843052E-01 0.30811827480E-01 0.38254477110E-01 0.46146180308E-01 0.53756277163E-01
 0.60328226045E-01 0.65048440267E-01 0.67324035939E-01 0.66859552574E-01 0.63747376851E-01
 0.58432427976E-01 0.51648781423E-01 0.44233339463E-01 0.36967267806E-01 0.30422894774E-01
 0.25091197817E-01 0.21167330211E-01 0.18636520489E-01 0.17357209240E-01 0.17006154033E-01
 0.17309842601E-01 0.17922581450E-01 0.18537619955E-01 0.18829960319E-01 0.18685320178E-01
 0.18040735539E-01 0.16902059622E-01 0.15406287288E-01 0.13791607889E-01 0.12311842851E-01
 0.11213444285E-01 0.10700812493E-01 0.12452981008E-01 0.14037136019E-01 0.17027092880E-01
 0.21555221104E-01 0.27724810997E-01 0.35350246816E-01 0.44039416290E-01 0.53248730790E-01
 0.62213881705E-01 0.69922751751E-01 0.75466819841E-01 0.78138263787E-01 0.77593347879E-01
 0.73935651191E-01 0.67687684624E-01 0.59699641555E-01 0.50977658632E-01 0.42472853249E-01
 0.34867859086E-01 0.28643405780E-01 0.24086557503E-01 0.21175257910E-01 0.19679771906E-01
 0.19294974038E-01 0.19681679693E-01 0.20431850002E-01 0.21125323813E-01 0.21504723232E-01
 0.21329609299E-01 0.20533001818E-01 0.19209888067E-01 0.17515600038E-01 0.15666204748E-01
 0.13951866210E-01 0.12674273801E-01 0.12093686484E-01 0.13518172427E-01 0.15285668411E-01
 0.18634154497E-01 0.23709560991E-01 0.30579666188E-01 0.39015474136E-01 0.48731676566E-01
 0.59098672732E-01 0.69129172283E-01 0.77777112674E-01 0.83995160097E-01 0.86988978166E-01
 0.86378904392E-01 0.82272814462E-01 0.75265369080E-01 0.66295128089E-01 0.56491860563E-01
 0.46942232788E-01 0.38463772456E-01 0.31517685698E-01 0.26440371196E-01 0.23211854407E-01
 0.21541252608E-01 0.21147463998E-01 0.21607538138E-01 0.22444709863E-01 0.23237116045E-01
 0.23620838324E-01 0.23429819956E-01 0.22600734323E-01 0.21138566378E-01 0.19227374976E-01
 0.17135693436E-01 0.15201905917E-01 0.13758298848E-01 0.13118355199E-01 0.14298213458E-01
 0.16156863714E-01 0.19683795439E-01 0.25062048796E-01 0.32385736179E-01 0.41439037099E-01
 0.51848175923E-01 0.62914013618E-01 0.73682361873E-01 0.82939743204E-01 0.89604613177E-01
 0.92813914554E-01 0.92158057675E-01 0.87753863530E-01 0.80242574755E-01 0.70626606125E-01
 0.60115184588E-01 0.49872446646E-01 0.40806388223E-01 0.33392531106E-01 0.27972191867E-01
 0.24529576055E-01 0.22753836050E-01 0.22355288010E-01 0.22856703118E-01 0.23761491061E-01
 0.24582223648E-01 0.25029211442E-01 0.24823121584E-01 0.23893251098E-01 0.22336697952E-01
 0.20342076047E-01 0.18151214760E-01 0.16103956655E-01 0.14561255522E-01 0.13876427028E-01
 0.14500522142E-01 0.16412503271E-01 0.20046293718E-01 0.25578393623E-01 0.33059953735E-01
 0.42265539806E-01 0.52907717124E-01 0.64268946648E-01 0.75263119680E-01 0.84741134409E-01
 0.91561228758E-01 0.94844577396E-01 0.94173699087E-01 0.89665496330E-01 0.81979569618E-01
 0.72139577122E-01 0.61378862796E-01 0.50892063691E-01 0.41621274404E-01 0.34044189132E-01
 0.28504397980E-01 0.24986807603E-01 0.23173579673E-01 0.22774897464E-01 0.23293801949E-01
 0.24209499274E-01 0.25069842123E-01 0.25490338299E-01 0.25284911539E-01 0.24384291531E-01
 0.22798423482E-01 0.20728179934E-01 0.18459005054E-01 0.16350355164E-01 0.14764902996E-01
 0.14064315157E-01 0.14298213458E-01 0.16156863714E-01 0.19683795439E-01 0.25062048796E-01
 0.32385736180E-01 0.41439037099E-01 0.51848175923E-01 0.62914013618E-01 0.73682361873E-01
 0.82939743204E-01 0.89604613179E-01 0.92813914556E-01 0.92158057675E-01 0.87753863530E-01
 0.80242574755E-01 0.70626606125E-01 0.60115184588E-01 0.49872446646E-01 0.40806388223E-01
 0.33392531106E-01 0.27972191867E-01 0.24529576055E-01 0.22753836050E-01 0.22355288010E-01
 0.22856703118E-01 0.23761491061E-01 0.24582223649E-01 0.25029211442E-01 0.24823121584E-01
 0.23893251099E-01 0.22336697952E-01 0.20342076047E-01 0.18151214760E-01 0.16103956655E-01
 0.14561255522E-01 0.13876427028E-01 0.13518172427E-01 0.15285668411E-01 0.18634154497E-01
 0.23709560991E-01 0.30579666188E-01 0.39015474136E-01 0.48731676566E-01 0.59098672732E-01
 0.69129172284E-01 0.77777112675E-01 0.83995160096E-01 0.86988978167E-01 0.86378904392E-01
 0.82272814462E-01 0.75265369080E-01 0.66295128089E-01 0.56491860563E-01 0.46942232788E-01
 0.38463772456E-01 0.31517685698E-01 0.26440371196E-01 0.23211854407E-01 0.21541252608E-01
 0.21147463998E-01 0.21607538139E-01 0.22444709863E-01 0.23237116045E-01 0.23620838323E-01
 0.23429819956E-01 0.22600734323E-01 0.21138566378E-01 0.19227374975E-01 0.17135693436E-01
 0.15201905917E-01 0.13758298848E-01 0.13118355199E-01 0.12452981007E-01 0.14037136019E-01
 0.17027092880E-01 0.21555221104E-01 0.27724810998E-01 0.35350246816E-01 0.44039416290E-01
 0.53248730790E-01 0.62213881706E-01 0.69922751750E-01 0.75466819841E-01 0.78138263787E-01
 0.77593347879E-01 0.73935651191E-01 0.67687684624E-01 0.59699641555E-01 0.50977658632E-01
 0.42472853248E-01 0.34867859086E-01 0.28643405780E-01 0.24086557503E-01 0.21175257910E-01
 0.19679771906E-01 0.19294974038E-01 0.19681679693E-01 0.20431850002E-01 0.21125323813E-01
 0.21504723232E-01 0.21329609299E-01 0.20533001817E-01 0.19209888067E-01 0.17515600037E-01
 0.15666204748E-01 0.13951866210E-01 0.12674273800E-01 0.12093686484E-01 0.11029492166E-01
 0.12419965435E-01 0.15040083490E-01 0.18986508448E-01 0.24284843052E-01 0.30811827480E-01
 0.38254477109E-01 0.46146180307E-01 0.53756277163E-01 0.60328226046E-01 0.65048440267E-01
 0.67324035939E-01 0.66859552574E-01 0.63747376851E-01 0.58432427976E-01 0.51648781423E-01
 0.44233339463E-01 0.36967267806E-01 0.30422894774E-01 0.25091197817E-01 0.21167330211E-01
 0.18636520489E-01 0.17357209240E-01 0.17006154033E-01 0.17309842601E-01 0.17922581450E-01
 0.18537619955E-01 0.18829960320E-01 0.18685320178E-01 0.18040735538E-01 0.16902059622E-01
 0.15406287288E-01 0.13791607889E-01 0.12311842851E-01 0.11213444285E-01 0.10700812494E-01
 0.96156212672E-02 0.10754293179E-01 0.12893991237E-01 0.16140278418E-01 0.20501332326E-01
 0.25925867702E-01 0.32066513192E-01 0.38490488933E-01 0.44711290094E-01 0.50047781462E-01
 0.53886266311E-01 0.55735324009E-01 0.55357605107E-01 0.52828322267E-01 0.48516139069E-01
 0.43006889171E-01 0.36959888509E-01 0.30976505693E-01 0.25588290524E-01 0.21212248285E-01
 0.17963536038E-01 0.15849070355E-01 0.14785595141E-01 0.14502776001E-01 0.14729528896E-01
 0.15216813394E-01 0.15688342192E-01 0.15961966967E-01 0.15844176761E-01 0.15272667014E-01
 0.14337031933E-01 0.13148264588E-01 0.11865916714E-01 0.10671677334E-01 0.97615505825E-02
 0.93313811198E-02 0.81791332978E-02 0.91000737579E-02 0.10829622094E-01 0.13435884687E-01
 0.16890085107E-01 0.21101277373E-01 0.25941793347E-01 0.31037313691E-01 0.35886442880E-01
 0.40045184621E-01 0.43024713239E-01 0.44454897369E-01 0.44161766229E-01 0.42196807882E-01
 0.38845049235E-01 0.34532757206E-01 0.29758623330E-01 0.25023894198E-01 0.20800890713E-01
 0.17325912816E-01 0.14741422848E-01 0.13062445814E-01 0.12182376685E-01 0.11971526930E-01
 0.12169837929E-01 0.12548734097E-01 0.12934730769E-01 0.13122842814E-01 0.13043263474E-01
 0.12661056025E-01 0.11950732335E-01 0.11008174064E-01 0.99761375020E-02 0.90126054338E-02
 0.82719561416E-02 0.79471883762E-02 0.71606496213E-02 0.78304100884E-02 0.90941100373E-02
 0.11010136791E-01 0.13615929540E-01 0.16825702179E-01 0.20441044554E-01 0.24230775858E-01
 0.27896976733E-01 0.31007619604E-01 0.33227284309E-01 0.34286615868E-01 0.34053156897E-01
 0.32568628874E-01 0.30025920444E-01 0.26747538442E-01 0.23126715944E-01 0.19569749895E-01
 0.16358211811E-01 0.13700958244E-01 0.11727298799E-01 0.10445643757E-01 0.97755873912E-02
 0.95959884006E-02 0.97714301374E-02 0.10113940952E-01 0.10432535733E-01 0.10649644503E-01
 0.10635840505E-01 0.10348432258E-01 0.98539089682E-02 0.92068859072E-02 0.84777738222E-02
 0.77751407936E-02 0.72431284220E-02 0.70036912521E-02 0.66621154881E-02 0.71134664248E-02
 0.79936484082E-02 0.93399946534E-02 0.11134071258E-01 0.13338612549E-01 0.15877062337E-01
 0.18565156390E-01 0.21120132117E-01 0.23320419558E-01 0.24881631318E-01 0.25608894391E-01
 0.25407330408E-01 0.24300940780E-01 0.22437520890E-01 0.20056110938E-01 0.17437605703E-01
 0.14832572888E-01 0.12469486052E-01 0.10527350959E-01 0.90792460852E-02 0.81390238200E-02
 0.76713275861E-02 0.75729478818E-02 0.77310698604E-02 0.80315185533E-02 0.83775417295E-02
 0.86132861290E-02 0.87202239160E-02 0.86763838552E-02 0.84345346495E-02 0.80325157695E-02
 0.75584856851E-02 0.71048037491E-02 0.67486074155E-02 0.65676416188E-02 0.74479490211E-02
 0.75995090421E-02 0.79834808908E-02 0.86626079957E-02 0.96851765251E-02 0.11032482344E-01
 0.12592719383E-01 0.14245916194E-01 0.15880798284E-01 0.17261685697E-01 0.18234883765E-01
 0.18655544454E-01 0.18452655773E-01 0.17641813449E-01 0.16317751303E-01 0.14633404043E-01
 0.12769622773E-01 0.10922552725E-01 0.92613750884E-02 0.78909847183E-02 0.68810511424E-02
 0.62478076767E-02 0.59600087995E-02 0.59714086194E-02 0.61978040562E-02 0.65575905763E-02
 0.69497636542E-02 0.73605783676E-02 0.76829007806E-02 0.78705555073E-02 0.79655869177E-02
 0.79762392857E-02 0.78993241792E-02 0.77536428048E-02 0.75867355465E-02 0.74652643834E-02
 0.10305525974E-01 0.10089564417E-01 0.99247606986E-02 0.98802446679E-02 0.99963402648E-02
 0.10305611699E-01 0.10847483825E-01 0.11556011794E-01 0.12270982829E-01 0.12918997119E-01
 0.13347051095E-01 0.13459585030E-01 0.13198891432E-01 0.12561698667E-01 0.11600477587E-01
 0.10413588638E-01 0.91284567061E-02 0.78686263705E-02 0.67372985470E-02 0.58235687916E-02
 0.51763535230E-02 0.48140402654E-02 0.47324581674E-02 0.48980514682E-02 0.52787615469E-02
 0.58198488572E-02 0.64952949142E-02 0.71998794850E-02 0.79427644115E-02 0.86957007671E-02
 0.93577264213E-02 0.98849681660E-02 0.10267550921E-01 0.10497276211E-01 0.10567981284E-01
 0.10488897730E-01 0.17564747512E-01 0.16635662165E-01 0.15449057673E-01 0.14183012079E-01
 0.13016740531E-01 0.12063236132E-01 0.11322926887E-01 0.10806633871E-01 0.10523699875E-01
 0.10328922267E-01 0.10149195490E-01 0.98852354531E-02 0.94741317378E-02 0.88920739930E-02
 0.81557229460E-02 0.73137555490E-02 0.64326736664E-02 0.55897523997E-02 0.48629572893E-02
 0.43091599997E-02 0.39731813623E-02 0.38842964439E-02 0.40552504881E-02 0.44962557235E-02
 0.51992319706E-02 0.61675191283E-02 0.73593769006E-02 0.88070584421E-02 0.10407635109E-01
 0.12070166772E-01 0.13759610477E-01 0.15359172108E-01 0.16708685859E-01 0.17666195887E-01
 0.18138998574E-01 0.18095715934E-01 0.33193295929E-01 0.30943578903E-01 0.27958492637E-01
 0.24575173202E-01 0.21113036237E-01 0.17862759739E-01 0.15081611269E-01 0.12836637860E-01
 0.11053747726E-01 0.97205930852E-02 0.86969110584E-02 0.78770567793E-02 0.71630262063E-02
 0.64884970736E-02 0.58214703223E-02 0.51630842124E-02 0.45410486314E-02 0.39963549326E-02
 0.35723230966E-02 0.33195311755E-02 0.32856452106E-02 0.35173983573E-02 0.40671670260E-02
 0.49847262271E-02 0.63328148605E-02 0.81519987111E-02 0.10510104297E-01 0.13346663003E-01
 0.16669029182E-01 0.20375830907E-01 0.24184598368E-01 0.27797984578E-01 0.30908884135E-01
 0.33204831376E-01 0.34421435409E-01 0.34411941475E-01 0.66248591941E-01 0.61112207612E-01
 0.54229457174E-01 0.46417889144E-01 0.38491666572E-01 0.31082834730E-01 0.24541852183E-01
 0.19100398274E-01 0.14847376937E-01 0.11600048063E-01 0.92088895596E-02 0.74606663598E-02
 0.61717914863E-02 0.51948476443E-02 0.44292456206E-02 0.38164413041E-02 0.33329390256E-02
 0.29847631017E-02 0.28040545044E-02 0.28376277023E-02 0.31523339642E-02 0.38381102936E-02
 0.50056754949E-02 0.67977528737E-02 0.93667776039E-02 0.12890573195E-01 0.17473013671E-01
 0.23253946212E-01 0.30116175039E-01 0.37796352578E-01 0.45936498349E-01 0.53910581469E-01
 0.60914376676E-01 0.66142003412E-01 0.68950346714E-01 0.68984018547E-01 0.13432265964E+00
 0.12310064954E+00 0.10814343567E+00 0.91225061936E-01 0.74042038489E-01 0.57999166182E-01
 0.44096670600E-01 0.32712143387E-01 0.23777492399E-01 0.17115240815E-01 0.12295389151E-01
 0.89099669059E-02 0.65738552716E-02 0.49771021178E-02 0.38889615988E-02 0.31575323354E-02
 0.26981746869E-02 0.24813675125E-02 0.25221617678E-02 0.28844969698E-02 0.36811546992E-02
 0.50791975427E-02 0.73155465938E-02 0.10689607803E-01 0.15574154385E-01 0.22349718334E-01
 0.31422757240E-01 0.42950330003E-01 0.56980617397E-01 0.73144469284E-01 0.90448916944E-01
 0.10749816602E+00 0.12260783266E+00 0.13401048879E+00 0.14020136670E+00 0.14030848041E+00
 0.27475914337E+00 0.25011269190E+00 0.21745936459E+00 0.18094273755E+00 0.14448856931E+00