=========================================
SLURM_JOB_ID = 51754162
SLURM_JOB_NODELIST = lnode59
SLURM_GPUS = 
SLURM_CPUS_ON_NODE = 24
SLURM_JOB_PARTITION = lenovo
SLURM_TASK_PID = 1115067
CUDA_VISIBLE_DEVICES = 
==========================================
 running on   24 total cores
 distrk:  each k-point on   24 cores,    1 groups
 distr:  one band on    4 cores,    6 groups
 using from now: INCAR     
 vasp.5.4.4.18Apr17-6-g9f103f2a35 (build Apr 28 2018 00:24:27) complex          
  
 POSCAR found type information on POSCAR  Fe
 POSCAR found :  1 types and       2 ions
 scaLAPACK will be used

 ----------------------------------------------------------------------------- 
|                                                                             |
|  ADVICE TO THIS USER RUNNING 'VASP/VAMP'   (HEAR YOUR MASTER'S VOICE ...):  |
|                                                                             |
|      You have a (more or less) 'small supercell' and for smaller cells      |
|      it is recommended  to use the reciprocal-space projection scheme!      |
|      The real space optimization is not  efficient for small cells and it   |
|      is also less accurate ...                                              |
|      Therefore set LREAL=.FALSE. in the  INCAR file                         |
|                                                                             |
 ----------------------------------------------------------------------------- 

 LDA part: xc-table for Pade appr. of Perdew
 POSCAR, INCAR and KPOINTS ok, starting setup
 FFT: planning ...
 WAVECAR not read
 entering main loop
       N       E                     dE             d eps       ncg     rms          rms(c)
DAV:   1     0.217817244204E+03    0.21782E+03   -0.18550E+04  3468   0.196E+03
DAV:   2    -0.994548736862E+01   -0.22776E+03   -0.21844E+03  3432   0.405E+02
DAV:   3    -0.162203435581E+02   -0.62749E+01   -0.62631E+01  3768   0.751E+01
DAV:   4    -0.162726003248E+02   -0.52257E-01   -0.52260E-01  3792   0.645E+00
DAV:   5    -0.162735787027E+02   -0.97838E-03   -0.97842E-03  3852   0.825E-01    0.250E+01
DAV:   6    -0.164556114561E+02   -0.18203E+00   -0.74919E+00  3420   0.396E+01    0.690E+00
DAV:   7    -0.165120094768E+02   -0.56398E-01   -0.61441E-01  3408   0.969E+00    0.430E+00
DAV:   8    -0.165220395201E+02   -0.10030E-01   -0.15008E-02  3768   0.146E+00    0.137E+00
DAV:   9    -0.165138626790E+02    0.81768E-02   -0.51539E-03  3672   0.873E-01    0.337E-01
DAV:  10    -0.165136904332E+02    0.17225E-03   -0.22484E-03  3420   0.612E-01    0.442E-02
DAV:  11    -0.165137495870E+02   -0.59154E-04   -0.48450E-05  3600   0.648E-02    0.243E-02
DAV:  12    -0.165137577394E+02   -0.81524E-05   -0.48925E-06  3828   0.223E-02    0.957E-03
DAV:  13    -0.165137509702E+02    0.67692E-05   -0.13401E-06  3528   0.115E-02    0.248E-03
DAV:  14    -0.165137494060E+02    0.15642E-05   -0.15552E-07  2640   0.330E-03    0.618E-04
DAV:  15    -0.165137494021E+02    0.38408E-08   -0.11574E-08  1728   0.111E-03
   1 F= -.16513749E+02 E0= -.16513749E+02  d E =0.000000E+00  mag=     4.4056
