 vasp.5.4.4.18Apr17-6-g9f103f2a35 (build Apr 28 2018 00:24:27) complex          
  
 executed on             LinuxIFC date 2021.09.06  23:54:46
 running on   24 total cores
 distrk:  each k-point on   24 cores,    1 groups
 distr:  one band on NCORES_PER_BAND=   4 cores,    6 groups


--------------------------------------------------------------------------------------------------------


 INCAR:
 POTCAR:    PAW_PBE Fe_pv 02Aug2007               
 POTCAR:    PAW_PBE Fe_pv 02Aug2007               
   VRHFIN =Fe:  3pd7s1                                                          
   LEXCH  = PE                                                                  
   EATOM  =  2457.4239 eV,  180.6156 Ry                                         
                                                                                
   TITEL  = PAW_PBE Fe_pv 02Aug2007                                             
   LULTRA =        F    use ultrasoft PP ?                                      
   IUNSCR =        1    unscreen: 0-lin 1-nonlin 2-no                           
   RPACOR =    1.750    partial core radius                                     
   POMASS =   55.847; ZVAL   =   14.000    mass and valenz                      
   RCORE  =    2.200    outmost cutoff radius                                   
   RWIGS  =    2.200; RWIGS  =    1.164    wigner-seitz radius (au A)           
   ENMAX  =  293.238; ENMIN  =  219.928 eV                                      
   ICORE  =        3    local potential                                         
   LCOR   =        T    correct aug charges                                     
   LPAW   =        T    paw PP                                                  
   EAUG   =  578.342                                                            
   DEXC   =    0.000                                                            
   RMAX   =    2.249    core radius for proj-oper                               
   RAUG   =    1.300    factor for augmentation sphere                          
   RDEP   =    2.296    radius for radial grids                                 
   RDEPT  =    1.766    core radius for aug-charge                              
                                                                                
   Atomic configuration                                                         
    8 entries                                                                   
     n  l   j            E        occ.                                          
     1  0  0.50     -6993.8440   2.0000                                         
     2  0  0.50      -814.6047   2.0000                                         
     2  1  1.50      -693.3689   6.0000                                         
     3  0  0.50       -89.4732   2.0000                                         
     3  1  1.50       -55.6373   6.0000                                         
     3  2  2.50        -3.8151   7.0000                                         
     4  0  0.50        -4.2551   1.0000                                         
     4  3  2.50        -1.3606   0.0000                                         
   Description                                                                  
     l       E           TYP  RCUT    TYP  RCUT                                 
     1    -55.6372668     23  2.000                                             
     1     -5.4423304     23  2.000                                             
     2     -3.8151096     23  2.200                                             
     2     -5.1756922     23  2.200                                             
     0     -4.2550951     23  2.200                                             
     0     27.2116520     23  2.200                                             
     3     -1.3605826     23  2.200                                             
  local pseudopotential read in
  partial core-charges read in
  partial kinetic energy density read in
  atomic valenz-charges read in
  non local Contribution for L=           1  read in
    real space projection operators read in
  non local Contribution for L=           1  read in
    real space projection operators read in
  non local Contribution for L=           2  read in
    real space projection operators read in
  non local Contribution for L=           2  read in
    real space projection operators read in
  non local Contribution for L=           0  read in
    real space projection operators read in
  non local Contribution for L=           0  read in
    real space projection operators read in
    PAW grid and wavefunctions read in
 
   number of l-projection  operators is LMAX  =           6
   number of lm-projection operators is LMMAX =          18
 

 ----------------------------------------------------------------------------- 
|                                                                             |
|  ADVICE TO THIS USER RUNNING 'VASP/VAMP'   (HEAR YOUR MASTER'S VOICE ...):  |
|                                                                             |
|      You have a (more or less) 'small supercell' and for smaller cells      |
|      it is recommended  to use the reciprocal-space projection scheme!      |
|      The real space optimization is not  efficient for small cells and it   |
|      is also less accurate ...                                              |
|      Therefore set LREAL=.FALSE. in the  INCAR file                         |
|                                                                             |
 ----------------------------------------------------------------------------- 

 Optimization of the real space projectors (new method)

 maximal supplied QI-value         = 17.01
 optimisation between [QCUT,QGAM] = [ 12.08, 24.15] = [ 40.83,163.33] Ry 
 Optimized for a Real-space Cutoff    1.39 Angstroem

   l    n(q)    QCUT    max X(q) W(low)/X(q) W(high)/X(q)  e(spline) 
   1     10    12.075     4.267    0.67E-04    0.21E-03    0.20E-06
   1     10    12.075     5.750    0.11E-03    0.32E-03    0.31E-06
   2      9    12.075    53.656    0.56E-04    0.90E-04    0.21E-06
   2      9    12.075    49.521    0.59E-04    0.93E-04    0.22E-06
   0     10    12.075    31.246    0.57E-04    0.25E-04    0.11E-06
   0     10    12.075    12.201    0.41E-04    0.21E-04    0.91E-07
  PAW_PBE Fe_pv 02Aug2007               :
 energy of atom  1       EATOM=-2457.4239
 kinetic energy error for atom=    0.0059 (will be added to EATOM!!)
 
 
 POSCAR: Fe2                                     
  positions in direct lattice
  No initial velocities read in
 exchange correlation table for  LEXCH =        8
   RHO(1)=    0.500       N(1)  =     2000
   RHO(2)=  100.500       N(2)  =     4000
 


--------------------------------------------------------------------------------------------------------


 ion  position               nearest neighbor table
   1  0.000  0.000  0.000-   2 2.46   2 2.46   2 2.46   2 2.46   2 2.46   2 2.46   2 2.46   2 2.46

   2  0.500  0.500  0.500-   1 2.46   1 2.46   1 2.46   1 2.46   1 2.46   1 2.46   1 2.46   1 2.46

 
  LATTYP: Found a simple cubic cell.
 ALAT       =     2.8400520000
  
  Lattice vectors:
  
 A1 = (   2.8400520000,   0.0000000000,   0.0000000000)
 A2 = (   0.0000000000,   2.8400520000,   0.0000000000)
 A3 = (   0.0000000000,   0.0000000000,   2.8400520000)


Analysis of symmetry for initial positions (statically):
=====================================================================
 Subroutine PRICEL returns following result:
 
  LATTYP: Found a body centered cubic cell.
 ALAT       =     2.8400520000
  
  Lattice vectors:
  
 A1 = (   1.4200260000,   1.4200260000,   1.4200260000)
 A2 = (   1.4200260000,  -1.4200260000,  -1.4200260000)
 A3 = (  -1.4200260000,   1.4200260000,  -1.4200260000)
 
   2 primitive cells build up your supercell.
 

 Routine SETGRP: Setting up the symmetry group for a 
 simple cubic supercell.


 Subroutine GETGRP returns: Found 48 space group operations
 (whereof 48 operations were pure point group operations)
 out of a pool of 48 trial point group operations.


The static configuration has the point symmetry O_h .


Analysis of symmetry for dynamics (positions and initial velocities):
=====================================================================
 Subroutine PRICEL returns following result:
 
  LATTYP: Found a body centered cubic cell.
 ALAT       =     2.8400520000
  
  Lattice vectors:
  
 A1 = (   1.4200260000,   1.4200260000,   1.4200260000)
 A2 = (   1.4200260000,  -1.4200260000,  -1.4200260000)
 A3 = (  -1.4200260000,   1.4200260000,  -1.4200260000)
 
   2 primitive cells build up your supercell.
 

 Routine SETGRP: Setting up the symmetry group for a 
 simple cubic supercell.


 Subroutine GETGRP returns: Found 48 space group operations
 (whereof 48 operations were pure point group operations)
 out of a pool of 48 trial point group operations.


The dynamic configuration has the point symmetry O_h .


Analysis of structural, dynamic, and magnetic symmetry:
=====================================================================
 Subroutine PRICEL returns following result:
 
  LATTYP: Found a body centered cubic cell.
 ALAT       =     2.8400520000
  
  Lattice vectors:
  
 A1 = (   1.4200260000,   1.4200260000,   1.4200260000)
 A2 = (   1.4200260000,  -1.4200260000,  -1.4200260000)
 A3 = (  -1.4200260000,   1.4200260000,  -1.4200260000)
 
   2 primitive cells build up your supercell.
 

 Routine SETGRP: Setting up the symmetry group for a 
 simple cubic supercell.


 Subroutine GETGRP returns: Found 48 space group operations
 (whereof 48 operations were pure point group operations)
 out of a pool of 48 trial point group operations.


The magnetic configuration has the point symmetry O_h .


 Subroutine INISYM returns: Found 48 space group operations
 (whereof 48 operations are pure point group operations),
 and found     2 'primitive' translations

 
 
 KPOINTS: pymatgen with grid density = 2166 / numb

Automatic generation of k-mesh.
Space group operators:
 irot       det(A)        alpha          n_x          n_y          n_z        tau_x        tau_y        tau_z
    1     1.000000     0.000000     1.000000     0.000000     0.000000     0.000000     0.000000     0.000000
    2    -1.000000     0.000000     1.000000     0.000000     0.000000     0.000000     0.000000     0.000000
    3     1.000000   120.000000    -0.577350    -0.577350    -0.577350     0.000000     0.000000     0.000000
    4    -1.000000   120.000000    -0.577350    -0.577350    -0.577350     0.000000     0.000000     0.000000
    5     1.000000   120.000000     0.577350     0.577350     0.577350     0.000000     0.000000     0.000000
    6    -1.000000   120.000000     0.577350     0.577350     0.577350     0.000000     0.000000     0.000000
    7     1.000000    90.000000     0.000000     0.000000    -1.000000     0.000000     0.000000     0.000000
    8    -1.000000    90.000000     0.000000     0.000000    -1.000000     0.000000     0.000000     0.000000
    9     1.000000   180.000000     0.000000     0.707107     0.707107     0.000000     0.000000     0.000000
   10    -1.000000   180.000000     0.000000     0.707107     0.707107     0.000000     0.000000     0.000000
   11     1.000000    90.000000     0.000000     1.000000     0.000000     0.000000     0.000000     0.000000
   12    -1.000000    90.000000     0.000000     1.000000     0.000000     0.000000     0.000000     0.000000
   13     1.000000   180.000000     0.000000     0.000000     1.000000     0.000000     0.000000     0.000000
   14    -1.000000   180.000000     0.000000     0.000000     1.000000     0.000000     0.000000     0.000000
   15     1.000000   120.000000    -0.577350     0.577350     0.577350     0.000000     0.000000     0.000000
   16    -1.000000   120.000000    -0.577350     0.577350     0.577350     0.000000     0.000000     0.000000
   17     1.000000   120.000000    -0.577350     0.577350    -0.577350     0.000000     0.000000     0.000000
   18    -1.000000   120.000000    -0.577350     0.577350    -0.577350     0.000000     0.000000     0.000000
   19     1.000000    90.000000     0.000000     0.000000     1.000000     0.000000     0.000000     0.000000
   20    -1.000000    90.000000     0.000000     0.000000     1.000000     0.000000     0.000000     0.000000
   21     1.000000    90.000000    -1.000000     0.000000     0.000000     0.000000     0.000000     0.000000
   22    -1.000000    90.000000    -1.000000     0.000000     0.000000     0.000000     0.000000     0.000000
   23     1.000000   180.000000     0.707107     0.000000     0.707107     0.000000     0.000000     0.000000
   24    -1.000000   180.000000     0.707107     0.000000     0.707107     0.000000     0.000000     0.000000
   25     1.000000   120.000000     0.577350    -0.577350     0.577350     0.000000     0.000000     0.000000
   26    -1.000000   120.000000     0.577350    -0.577350     0.577350     0.000000     0.000000     0.000000
   27     1.000000   120.000000    -0.577350    -0.577350     0.577350     0.000000     0.000000     0.000000
   28    -1.000000   120.000000    -0.577350    -0.577350     0.577350     0.000000     0.000000     0.000000
   29     1.000000   180.000000     1.000000     0.000000     0.000000     0.000000     0.000000     0.000000
   30    -1.000000   180.000000     1.000000     0.000000     0.000000     0.000000     0.000000     0.000000
   31     1.000000    90.000000     0.000000    -1.000000     0.000000     0.000000     0.000000     0.000000
   32    -1.000000    90.000000     0.000000    -1.000000     0.000000     0.000000     0.000000     0.000000
   33     1.000000   180.000000     0.707107     0.707107     0.000000     0.000000     0.000000     0.000000
   34    -1.000000   180.000000     0.707107     0.707107     0.000000     0.000000     0.000000     0.000000
   35     1.000000    90.000000     1.000000     0.000000     0.000000     0.000000     0.000000     0.000000
   36    -1.000000    90.000000     1.000000     0.000000     0.000000     0.000000     0.000000     0.000000
   37     1.000000   120.000000     0.577350    -0.577350    -0.577350     0.000000     0.000000     0.000000
   38    -1.000000   120.000000     0.577350    -0.577350    -0.577350     0.000000     0.000000     0.000000
   39     1.000000   180.000000     0.000000     1.000000     0.000000     0.000000     0.000000     0.000000
   40    -1.000000   180.000000     0.000000     1.000000     0.000000     0.000000     0.000000     0.000000
   41     1.000000   120.000000     0.577350     0.577350    -0.577350     0.000000     0.000000     0.000000
   42    -1.000000   120.000000     0.577350     0.577350    -0.577350     0.000000     0.000000     0.000000
   43     1.000000   180.000000     0.000000    -0.707107     0.707107     0.000000     0.000000     0.000000
   44    -1.000000   180.000000     0.000000    -0.707107     0.707107     0.000000     0.000000     0.000000
   45     1.000000   180.000000     0.707107    -0.707107     0.000000     0.000000     0.000000     0.000000
   46    -1.000000   180.000000     0.707107    -0.707107     0.000000     0.000000     0.000000     0.000000
   47     1.000000   180.000000     0.707107     0.000000    -0.707107     0.000000     0.000000     0.000000
   48    -1.000000   180.000000     0.707107     0.000000    -0.707107     0.000000     0.000000     0.000000
 
 Subroutine IBZKPT returns following result:
 ===========================================
 
 Found     35 irreducible k-points:
 
 Following reciprocal coordinates:
            Coordinates               Weight
  0.050000  0.050000  0.050000      8.000000
  0.150000  0.050000  0.050000     24.000000
  0.250000  0.050000  0.050000     24.000000
  0.350000  0.050000  0.050000     24.000000
  0.450000  0.050000  0.050000     24.000000
  0.150000  0.150000  0.050000     24.000000
  0.250000  0.150000  0.050000     48.000000
  0.350000  0.150000  0.050000     48.000000
  0.450000  0.150000  0.050000     48.000000
  0.250000  0.250000  0.050000     24.000000
  0.350000  0.250000  0.050000     48.000000
  0.450000  0.250000  0.050000     48.000000
  0.350000  0.350000  0.050000     24.000000
  0.450000  0.350000  0.050000     48.000000
  0.450000  0.450000  0.050000     24.000000
  0.150000  0.150000  0.150000      8.000000
  0.250000  0.150000  0.150000     24.000000
  0.350000  0.150000  0.150000     24.000000
  0.450000  0.150000  0.150000     24.000000
  0.250000  0.250000  0.150000     24.000000
  0.350000  0.250000  0.150000     48.000000
  0.450000  0.250000  0.150000     48.000000
  0.350000  0.350000  0.150000     24.000000
  0.450000  0.350000  0.150000     48.000000
  0.450000  0.450000  0.150000     24.000000
  0.250000  0.250000  0.250000      8.000000
  0.350000  0.250000  0.250000     24.000000
  0.450000  0.250000  0.250000     24.000000
  0.350000  0.350000  0.250000     24.000000
  0.450000  0.350000  0.250000     48.000000
  0.450000  0.450000  0.250000     24.000000
  0.350000  0.350000  0.350000      8.000000
  0.450000  0.350000  0.350000     24.000000
  0.450000  0.450000  0.350000     24.000000
  0.450000  0.450000  0.450000      8.000000
 
 Following cartesian coordinates:
            Coordinates               Weight
  0.017605  0.017605  0.017605      8.000000
  0.052816  0.017605  0.017605     24.000000
  0.088027  0.017605  0.017605     24.000000
  0.123237  0.017605  0.017605     24.000000
  0.158448  0.017605  0.017605     24.000000
  0.052816  0.052816  0.017605     24.000000
  0.088027  0.052816  0.017605     48.000000
  0.123237  0.052816  0.017605     48.000000
  0.158448  0.052816  0.017605     48.000000
  0.088027  0.088027  0.017605     24.000000
  0.123237  0.088027  0.017605     48.000000
  0.158448  0.088027  0.017605     48.000000
  0.123237  0.123237  0.017605     24.000000
  0.158448  0.123237  0.017605     48.000000
  0.158448  0.158448  0.017605     24.000000
  0.052816  0.052816  0.052816      8.000000
  0.088027  0.052816  0.052816     24.000000
  0.123237  0.052816  0.052816     24.000000
  0.158448  0.052816  0.052816     24.000000
  0.088027  0.088027  0.052816     24.000000
  0.123237  0.088027  0.052816     48.000000
  0.158448  0.088027  0.052816     48.000000
  0.123237  0.123237  0.052816     24.000000
  0.158448  0.123237  0.052816     48.000000
  0.158448  0.158448  0.052816     24.000000
  0.088027  0.088027  0.088027      8.000000
  0.123237  0.088027  0.088027     24.000000
  0.158448  0.088027  0.088027     24.000000
  0.123237  0.123237  0.088027     24.000000
  0.158448  0.123237  0.088027     48.000000
  0.158448  0.158448  0.088027     24.000000
  0.123237  0.123237  0.123237      8.000000
  0.158448  0.123237  0.123237     24.000000
  0.158448  0.158448  0.123237     24.000000
  0.158448  0.158448  0.158448      8.000000
 
 TETIRR: Found    466 inequivalent tetrahedra from     6000


--------------------------------------------------------------------------------------------------------




 Dimension of arrays:
   k-points           NKPTS =     35   k-points in BZ     NKDIM =     35   number of bands    NBANDS=     24
   number of dos      NEDOS =    301   number of ions     NIONS =      2
   non local maximal  LDIM  =      6   non local SUM 2l+1 LMDIM =     18
   total plane-waves  NPLWV =  13824
   max r-space proj   IRMAX =   6885   max aug-charges    IRDMAX=  18070
   dimension x,y,z NGX =    24 NGY =   24 NGZ =   24
   dimension x,y,z NGXF=    48 NGYF=   48 NGZF=   48
   support grid    NGXF=    48 NGYF=   48 NGZF=   48
   ions per type =               2
   NGX,Y,Z   is equivalent  to a cutoff of  14.05, 14.05, 14.05 a.u.
   NGXF,Y,Z  is equivalent  to a cutoff of  28.10, 28.10, 28.10 a.u.

 SYSTEM =  unknown system                          
 POSCAR =  Fe2                                     

 Startparameter for this run:
   NWRITE =      2    write-flag & timer
   PREC   = accura    normal or accurate (medium, high low for compatibility)
   ISTART =      0    job   : 0-new  1-cont  2-samecut
   ICHARG =      2    charge: 1-file 2-atom 10-const
   ISPIN  =      2    spin polarized calculation?
   LNONCOLLINEAR =      F non collinear calculations
   LSORBIT =      F    spin-orbit coupling
   INIWAV =      1    electr: 0-lowe 1-rand  2-diag
   LASPH  =      F    aspherical Exc in radial PAW
   METAGGA=      F    non-selfconsistent MetaGGA calc.

 Electronic Relaxation 1
   ENCUT  =  560.0 eV  41.16 Ry    6.42 a.u.   5.48  5.48  5.48*2*pi/ulx,y,z
   ENINI  =  560.0     initial cutoff
   ENAUG  =  578.3 eV  augmentation charge cutoff
   NELM   =    100;   NELMIN=  2; NELMDL= -5     # of ELM steps 
   EDIFF  = 0.1E-06   stopping-criterion for ELM
   LREAL  =      T    real-space projection
   NLSPLINE    = F    spline interpolate recip. space projectors
   LCOMPAT=      F    compatible to vasp.4.4
   GGA_COMPAT  = T    GGA compatible to vasp.4.4-vasp.4.6
   LMAXPAW     = -100 max onsite density
   LMAXMIX     =    2 max onsite mixed and CHGCAR
   VOSKOWN=      0    Vosko Wilk Nusair interpolation
   ROPT   =   -0.00025
 Ionic relaxation
   EDIFFG = 0.1E-05   stopping-criterion for IOM
   NSW    =      0    number of steps for IOM
   NBLOCK =      1;   KBLOCK =      1    inner block; outer block 
   IBRION =     -1    ionic relax: 0-MD 1-quasi-New 2-CG
   NFREE  =      0    steps in history (QN), initial steepest desc. (CG)
   ISIF   =      3    stress and relaxation
   IWAVPR =     10    prediction:  0-non 1-charg 2-wave 3-comb
   ISYM   =      2    0-nonsym 1-usesym 2-fastsym
   LCORR  =      T    Harris-Foulkes like correction to forces

   POTIM  = 0.5000    time-step for ionic-motion
   TEIN   =    0.0    initial temperature
   TEBEG  =    0.0;   TEEND  =   0.0 temperature during run
   SMASS  =  -3.00    Nose mass-parameter (am)
   estimated Nose-frequenzy (Omega)   =  0.10E-29 period in steps =****** mass=  -0.184E-27a.u.
   SCALEE = 1.0000    scale energy and forces
   NPACO  =    256;   APACO  = 16.0  distance and # of slots for P.C.
   PSTRESS=    0.0 pullay stress

  Mass of Ions in am
   POMASS =  55.85
  Ionic Valenz
   ZVAL   =  14.00
  Atomic Wigner-Seitz radii
   RWIGS  =  -1.00
  virtual crystal weights 
   VCA    =   1.00
   NELECT =      28.0000    total number of electrons
   NUPDOWN=      -1.0000    fix difference up-down

 DOS related values:
   EMIN   =  10.00;   EMAX   =-10.00  energy-range for DOS
   EFERMI =   0.00
   ISMEAR =    -5;   SIGMA  =   0.05  broadening in eV -4-tet -1-fermi 0-gaus

 Electronic relaxation 2 (details)
   IALGO  =     38    algorithm
   LDIAG  =      T    sub-space diagonalisation (order eigenvalues)
   LSUBROT=      F    optimize rotation matrix (better conditioning)
   TURBO    =      0    0=normal 1=particle mesh
   IRESTART =      0    0=no restart 2=restart with 2 vectors
   NREBOOT  =      0    no. of reboots
   NMIN     =      0    reboot dimension
   EREF     =   0.00    reference energy to select bands
   IMIX   =      4    mixing-type and parameters
     AMIX     =   0.40;   BMIX     =  1.00
     AMIX_MAG =   1.60;   BMIX_MAG =  1.00
     AMIN     =   0.10
     WC   =   100.;   INIMIX=   1;  MIXPRE=   1;  MAXMIX= -45

 Intra band minimization:
   WEIMIN = 0.0000     energy-eigenvalue tresh-hold
   EBREAK =  0.10E-08  absolut break condition
   DEPER  =   0.30     relativ break condition  

   TIME   =   0.40     timestep for ELM

  volume/ion in A,a.u.               =      11.45        77.29
  Fermi-wavevector in a.u.,A,eV,Ry     =   1.750389  3.307755 41.686364  3.063861
  Thomas-Fermi vector in A             =   2.821117
 
 Write flags
   LWAVE        =      F    write WAVECAR
   LDOWNSAMPLE  =      F    k-point downsampling of WAVECAR
   LCHARG       =      F    write CHGCAR
   LVTOT        =      F    write LOCPOT, total local potential
   LVHAR        =      F    write LOCPOT, Hartree potential only
   LELF         =      F    write electronic localiz. function (ELF)
   LORBIT       =     11    0 simple, 1 ext, 2 COOP (PROOUT), +10 PAW based schemes


 Dipole corrections
   LMONO  =      F    monopole corrections only (constant potential shift)
   LDIPOL =      F    correct potential (dipole corrections)
   IDIPOL =      0    1-x, 2-y, 3-z, 4-all directions 
   EPSILON=  1.0000000 bulk dielectric constant

 Exchange correlation treatment:
   GGA     =    --    GGA type
   LEXCH   =     8    internal setting for exchange type
   VOSKOWN=      0    Vosko Wilk Nusair interpolation
   LHFCALC =     F    Hartree Fock is set to
   LHFONE  =     F    Hartree Fock one center treatment
   AEXX    =    0.0000 exact exchange contribution

 Linear response parameters
   LEPSILON=     F    determine dielectric tensor
   LRPA    =     F    only Hartree local field effects (RPA)
   LNABLA  =     F    use nabla operator in PAW spheres
   LVEL    =     F    velocity operator in full k-point grid
   LINTERFAST=   F  fast interpolation
   KINTER  =     0    interpolate to denser k-point grid
   CSHIFT  =0.1000    complex shift for real part using Kramers Kronig
   OMEGAMAX=  -1.0    maximum frequency
   DEG_THRESHOLD= 0.2000000E-02 threshold for treating states as degnerate
   RTIME   =   -0.100 relaxation time in fs
  (WPLASMAI=    0.000 imaginary part of plasma frequency in eV, 0.658/RTIME)
   DFIELD  = 0.0000000 0.0000000 0.0000000 field for delta impulse in time
 
 Orbital magnetization related:
   ORBITALMAG=     F  switch on orbital magnetization
   LCHIMAG   =     F  perturbation theory with respect to B field
   DQ        =  0.001000  dq finite difference perturbation B field
   LLRAUG    =     F  two centre corrections for induced B field



--------------------------------------------------------------------------------------------------------


 Static calculation
 charge density and potential will be updated during run
 spin polarized calculation
 Variant of blocked Davidson
 Davidson routine will perform the subspace rotation
 perform sub-space diagonalisation
    after iterative eigenvector-optimisation
 modified Broyden-mixing scheme, WC =      100.0
 initial mixing is a Kerker type mixing with AMIX =  0.4000 and BMIX =      1.0000
 Hartree-type preconditioning will be used
 using additional bands           10
 real space projection scheme for non local part
 use partial core corrections
 calculate Harris-corrections to forces 
   (improved forces if not selfconsistent)
 use gradient corrections 
 use of overlap-Matrix (Vanderbilt PP)
 Fermi weights with tetrahedron method with Bloechl corrections


--------------------------------------------------------------------------------------------------------


  energy-cutoff  :      560.00
  volume of cell :       22.91
      direct lattice vectors                 reciprocal lattice vectors
     2.840052000  0.000000000  0.000000000     0.352106229  0.000000000  0.000000000
     0.000000000  2.840052000  0.000000000     0.000000000  0.352106229  0.000000000
     0.000000000  0.000000000  2.840052000     0.000000000  0.000000000  0.352106229

  length of vectors
     2.840052000  2.840052000  2.840052000     0.352106229  0.352106229  0.352106229


 
 k-points in units of 2pi/SCALE and weight: pymatgen with grid density = 2166 / numb
   0.01760531  0.01760531  0.01760531       0.008
   0.05281593  0.01760531  0.01760531       0.024
   0.08802656  0.01760531  0.01760531       0.024
   0.12323718  0.01760531  0.01760531       0.024
   0.15844780  0.01760531  0.01760531       0.024
   0.05281593  0.05281593  0.01760531       0.024
   0.08802656  0.05281593  0.01760531       0.048
   0.12323718  0.05281593  0.01760531       0.048
   0.15844780  0.05281593  0.01760531       0.048
   0.08802656  0.08802656  0.01760531       0.024
   0.12323718  0.08802656  0.01760531       0.048
   0.15844780  0.08802656  0.01760531       0.048
   0.12323718  0.12323718  0.01760531       0.024
   0.15844780  0.12323718  0.01760531       0.048
   0.15844780  0.15844780  0.01760531       0.024
   0.05281593  0.05281593  0.05281593       0.008
   0.08802656  0.05281593  0.05281593       0.024
   0.12323718  0.05281593  0.05281593       0.024
   0.15844780  0.05281593  0.05281593       0.024
   0.08802656  0.08802656  0.05281593       0.024
   0.12323718  0.08802656  0.05281593       0.048
   0.15844780  0.08802656  0.05281593       0.048
   0.12323718  0.12323718  0.05281593       0.024
   0.15844780  0.12323718  0.05281593       0.048
   0.15844780  0.15844780  0.05281593       0.024
   0.08802656  0.08802656  0.08802656       0.008
   0.12323718  0.08802656  0.08802656       0.024
   0.15844780  0.08802656  0.08802656       0.024
   0.12323718  0.12323718  0.08802656       0.024
   0.15844780  0.12323718  0.08802656       0.048
   0.15844780  0.15844780  0.08802656       0.024
   0.12323718  0.12323718  0.12323718       0.008
   0.15844780  0.12323718  0.12323718       0.024
   0.15844780  0.15844780  0.12323718       0.024
   0.15844780  0.15844780  0.15844780       0.008
 
 k-points in reciprocal lattice and weights: pymatgen with grid density = 2166 / numb
   0.05000000  0.05000000  0.05000000       0.008
   0.15000000  0.05000000  0.05000000       0.024
   0.25000000  0.05000000  0.05000000       0.024
   0.35000000  0.05000000  0.05000000       0.024
   0.45000000  0.05000000  0.05000000       0.024
   0.15000000  0.15000000  0.05000000       0.024
   0.25000000  0.15000000  0.05000000       0.048
   0.35000000  0.15000000  0.05000000       0.048
   0.45000000  0.15000000  0.05000000       0.048
   0.25000000  0.25000000  0.05000000       0.024
   0.35000000  0.25000000  0.05000000       0.048
   0.45000000  0.25000000  0.05000000       0.048
   0.35000000  0.35000000  0.05000000       0.024
   0.45000000  0.35000000  0.05000000       0.048
   0.45000000  0.45000000  0.05000000       0.024
   0.15000000  0.15000000  0.15000000       0.008
   0.25000000  0.15000000  0.15000000       0.024
   0.35000000  0.15000000  0.15000000       0.024
   0.45000000  0.15000000  0.15000000       0.024
   0.25000000  0.25000000  0.15000000       0.024
   0.35000000  0.25000000  0.15000000       0.048
   0.45000000  0.25000000  0.15000000       0.048
   0.35000000  0.35000000  0.15000000       0.024
   0.45000000  0.35000000  0.15000000       0.048
   0.45000000  0.45000000  0.15000000       0.024
   0.25000000  0.25000000  0.25000000       0.008
   0.35000000  0.25000000  0.25000000       0.024
   0.45000000  0.25000000  0.25000000       0.024
   0.35000000  0.35000000  0.25000000       0.024
   0.45000000  0.35000000  0.25000000       0.048
   0.45000000  0.45000000  0.25000000       0.024
   0.35000000  0.35000000  0.35000000       0.008
   0.45000000  0.35000000  0.35000000       0.024
   0.45000000  0.45000000  0.35000000       0.024
   0.45000000  0.45000000  0.45000000       0.008
 
 position of ions in fractional coordinates (direct lattice) 
   0.00000000  0.00000000  0.00000000
   0.50000000  0.50000000  0.50000000
 
 position of ions in cartesian coordinates  (Angst):
   0.00000000  0.00000000  0.00000000
   1.42002600  1.42002600  1.42002600
 


--------------------------------------------------------------------------------------------------------


 k-point  1 :   0.0500 0.0500 0.0500  plane waves:     715
 k-point  2 :   0.1500 0.0500 0.0500  plane waves:     701
 k-point  3 :   0.2500 0.0500 0.0500  plane waves:     693
 k-point  4 :   0.3500 0.0500 0.0500  plane waves:     693
 k-point  5 :   0.4500 0.0500 0.0500  plane waves:     691
 k-point  6 :   0.1500 0.1500 0.0500  plane waves:     696
 k-point  7 :   0.2500 0.1500 0.0500  plane waves:     695
 k-point  8 :   0.3500 0.1500 0.0500  plane waves:     688
 k-point  9 :   0.4500 0.1500 0.0500  plane waves:     692
 k-point 10 :   0.2500 0.2500 0.0500  plane waves:     695
 k-point 11 :   0.3500 0.2500 0.0500  plane waves:     688
 k-point 12 :   0.4500 0.2500 0.0500  plane waves:     696
 k-point 13 :   0.3500 0.3500 0.0500  plane waves:     688
 k-point 14 :   0.4500 0.3500 0.0500  plane waves:     693
 k-point 15 :   0.4500 0.4500 0.0500  plane waves:     687
 k-point 16 :   0.1500 0.1500 0.1500  plane waves:     700
 k-point 17 :   0.2500 0.1500 0.1500  plane waves:     697
 k-point 18 :   0.3500 0.1500 0.1500  plane waves:     695
 k-point 19 :   0.4500 0.1500 0.1500  plane waves:     687
 k-point 20 :   0.2500 0.2500 0.1500  plane waves:     695
 k-point 21 :   0.3500 0.2500 0.1500  plane waves:     695
 k-point 22 :   0.4500 0.2500 0.1500  plane waves:     687
 k-point 23 :   0.3500 0.3500 0.1500  plane waves:     689
 k-point 24 :   0.4500 0.3500 0.1500  plane waves:     687
 k-point 25 :   0.4500 0.4500 0.1500  plane waves:     691
 k-point 26 :   0.2500 0.2500 0.2500  plane waves:     690
 k-point 27 :   0.3500 0.2500 0.2500  plane waves:     688
 k-point 28 :   0.4500 0.2500 0.2500  plane waves:     686
 k-point 29 :   0.3500 0.3500 0.2500  plane waves:     691
 k-point 30 :   0.4500 0.3500 0.2500  plane waves:     682
 k-point 31 :   0.4500 0.4500 0.2500  plane waves:     679
 k-point 32 :   0.3500 0.3500 0.3500  plane waves:     681
 k-point 33 :   0.4500 0.3500 0.3500  plane waves:     677
 k-point 34 :   0.4500 0.4500 0.3500  plane waves:     681
 k-point 35 :   0.4500 0.4500 0.4500  plane waves:     675

 maximum and minimum number of plane-waves per node :       185      162

 maximum number of plane-waves:       715
 maximum index in each direction: 
   IXMAX=    5   IYMAX=    5   IZMAX=    5
   IXMIN=   -5   IYMIN=   -5   IZMIN=   -5


 real space projection operators:
  total allocation   :       1861.59 KBytes
  max/ min on nodes  :        469.69        452.53


 parallel 3D FFT for wavefunctions:
    minimum data exchange during FFTs selected (reduces bandwidth)
 parallel 3D FFT for charge:
    minimum data exchange during FFTs selected (reduces bandwidth)


 total amount of memory used by VASP MPI-rank0    32590. kBytes
=======================================================================

   base      :      30000. kBytes
   nonlr-proj:        788. kBytes
   fftplans  :        261. kBytes
   grid      :        623. kBytes
   one-center:         31. kBytes
   wavefun   :        887. kBytes
 
     INWAV:  cpu time    0.0000: real time    0.0001
 Broyden mixing: mesh for mixing (old mesh)
   NGX = 11   NGY = 11   NGZ = 11
  (NGX  = 48   NGY  = 48   NGZ  = 48)
  gives a total of   1331 points

 initial charge density was supplied:
 charge density of overlapping atoms calculated
 number of electron      28.0000000 magnetization      10.0000000
 keeping initial charge density in first step


--------------------------------------------------------------------------------------------------------


 Maximum index for non-local projection operator         1609
 Maximum index for augmentation-charges          805 (set IRDMAX)


--------------------------------------------------------------------------------------------------------


 First call to EWALD:  gamma=   0.624
 Maximum number of real-space cells 3x 3x 3
 Maximum number of reciprocal cells 3x 3x 3

    FEWALD:  cpu time    0.0013: real time    0.0013


--------------------------------------- Iteration      1(   1)  ---------------------------------------


    POTLOK:  cpu time    0.0090: real time    0.0122
    SETDIJ:  cpu time    0.0063: real time    0.0063
     EDDAV:  cpu time    0.4472: real time    0.4489
 BZINTS: Fermi energy: 20.271279; 28.000000 electrons
         Band energy:-104.601391;  BLOECHL correction: -0.176285
       DOS:  cpu time    0.0349: real time    0.0350
    --------------------------------------------
      LOOP:  cpu time    0.4975: real time    0.5025

 eigenvalue-minimisations  :  3468
 total energy-change (2. order) : 0.2178172E+03  (-0.1855002E+04)
 number of electron      28.0000000 magnetization      10.0000000
 augmentation part       28.0000000 magnetization      10.0000000

 Free energy of the ion-electron system (eV)
  ---------------------------------------------------
  alpha Z        PSCENC =       218.87048721
  Ewald energy   TEWEN  =     -3616.56080017
  -Hartree energ DENC   =     -1162.86386254
  -exchange      EXHF   =         0.00000000
  -V(xc)+E(xc)   XCENC  =       147.54621923
  PAW double counting   =      3997.93860218    -4177.34792201
  entropy T*S    EENTRO =         0.00000000
  eigenvalues    EBANDS =      -104.60139133
  atomic energy  EATOM  =      4914.83591164
  Solvation  Ediel_sol  =         0.00000000
  ---------------------------------------------------
  free energy    TOTEN  =       217.81724420 eV

  energy without entropy =      217.81724420  energy(sigma->0) =      217.81724420


--------------------------------------------------------------------------------------------------------




--------------------------------------- Iteration      1(   2)  ---------------------------------------


     EDDAV:  cpu time    0.4402: real time    0.4414
 BZINTS: Fermi energy: 12.177634; 28.000000 electrons
         Band energy:-332.364123;  BLOECHL correction: -0.070786
       DOS:  cpu time    0.0344: real time    0.0345
    --------------------------------------------
      LOOP:  cpu time    0.4746: real time    0.4759

 eigenvalue-minimisations  :  3432
 total energy-change (2. order) :-0.2277627E+03  (-0.2184388E+03)
 number of electron      28.0000000 magnetization      10.0000000
 augmentation part       28.0000000 magnetization      10.0000000

 Free energy of the ion-electron system (eV)
  ---------------------------------------------------
  alpha Z        PSCENC =       218.87048721
  Ewald energy   TEWEN  =     -3616.56080017
  -Hartree energ DENC   =     -1162.86386254
  -exchange      EXHF   =         0.00000000
  -V(xc)+E(xc)   XCENC  =       147.54621923
  PAW double counting   =      3997.93860218    -4177.34792201
  entropy T*S    EENTRO =         0.00000000
  eigenvalues    EBANDS =      -332.36412291
  atomic energy  EATOM  =      4914.83591164
  Solvation  Ediel_sol  =         0.00000000
  ---------------------------------------------------
  free energy    TOTEN  =        -9.94548737 eV

  energy without entropy =       -9.94548737  energy(sigma->0) =       -9.94548737


--------------------------------------------------------------------------------------------------------




--------------------------------------- Iteration      1(   3)  ---------------------------------------


     EDDAV:  cpu time    0.4685: real time    0.4699
 BZINTS: Fermi energy: 12.037330; 28.000000 electrons
         Band energy:-338.638979;  BLOECHL correction: -0.071289
       DOS:  cpu time    0.0342: real time    0.0342
    --------------------------------------------
      LOOP:  cpu time    0.5027: real time    0.5041

 eigenvalue-minimisations  :  3768
 total energy-change (2. order) :-0.6274856E+01  (-0.6263139E+01)
 number of electron      28.0000000 magnetization      10.0000000
 augmentation part       28.0000000 magnetization      10.0000000

 Free energy of the ion-electron system (eV)
  ---------------------------------------------------
  alpha Z        PSCENC =       218.87048721
  Ewald energy   TEWEN  =     -3616.56080017
  -Hartree energ DENC   =     -1162.86386254
  -exchange      EXHF   =         0.00000000
  -V(xc)+E(xc)   XCENC  =       147.54621923
  PAW double counting   =      3997.93860218    -4177.34792201
  entropy T*S    EENTRO =         0.00000000
  eigenvalues    EBANDS =      -338.63897910
  atomic energy  EATOM  =      4914.83591164
  Solvation  Ediel_sol  =         0.00000000
  ---------------------------------------------------
  free energy    TOTEN  =       -16.22034356 eV

  energy without entropy =      -16.22034356  energy(sigma->0) =      -16.22034356


--------------------------------------------------------------------------------------------------------




--------------------------------------- Iteration      1(   4)  ---------------------------------------


     EDDAV:  cpu time    0.4728: real time    0.4741
 BZINTS: Fermi energy: 12.036972; 28.000000 electrons
         Band energy:-338.691236;  BLOECHL correction: -0.071287
       DOS:  cpu time    0.0261: real time    0.0261
    --------------------------------------------
      LOOP:  cpu time    0.4989: real time    0.5002

 eigenvalue-minimisations  :  3792
 total energy-change (2. order) :-0.5225677E-01  (-0.5225960E-01)
 number of electron      28.0000000 magnetization      10.0000000
 augmentation part       28.0000000 magnetization      10.0000000

 Free energy of the ion-electron system (eV)
  ---------------------------------------------------
  alpha Z        PSCENC =       218.87048721
  Ewald energy   TEWEN  =     -3616.56080017
  -Hartree energ DENC   =     -1162.86386254
  -exchange      EXHF   =         0.00000000
  -V(xc)+E(xc)   XCENC  =       147.54621923
  PAW double counting   =      3997.93860218    -4177.34792201
  entropy T*S    EENTRO =         0.00000000
  eigenvalues    EBANDS =      -338.69123586
  atomic energy  EATOM  =      4914.83591164
  Solvation  Ediel_sol  =         0.00000000
  ---------------------------------------------------
  free energy    TOTEN  =       -16.27260032 eV

  energy without entropy =      -16.27260032  energy(sigma->0) =      -16.27260032


--------------------------------------------------------------------------------------------------------




--------------------------------------- Iteration      1(   5)  ---------------------------------------


     EDDAV:  cpu time    0.4774: real time    0.4786
 BZINTS: Fermi energy: 12.036970; 28.000000 electrons
         Band energy:-338.692214;  BLOECHL correction: -0.071287
       DOS:  cpu time    0.0287: real time    0.0288
    CHARGE:  cpu time    0.0144: real time    0.0144
    MIXING:  cpu time    0.0005: real time    0.0006
    --------------------------------------------
      LOOP:  cpu time    0.5210: real time    0.5224

 eigenvalue-minimisations  :  3852
 total energy-change (2. order) :-0.9783779E-03  (-0.9784154E-03)
 number of electron      28.0000000 magnetization       4.3578934
 augmentation part       15.9048767 magnetization       2.8340285

 Broyden mixing:
  rms(total) = 0.24982E+01    rms(broyden)= 0.24982E+01
  rms(prec ) = 0.39506E+01
  weight for this iteration     100.00

 Free energy of the ion-electron system (eV)
  ---------------------------------------------------
  alpha Z        PSCENC =       218.87048721
  Ewald energy   TEWEN  =     -3616.56080017
  -Hartree energ DENC   =     -1162.86386254
  -exchange      EXHF   =         0.00000000
  -V(xc)+E(xc)   XCENC  =       147.54621923
  PAW double counting   =      3997.93860218    -4177.34792201
  entropy T*S    EENTRO =         0.00000000
  eigenvalues    EBANDS =      -338.69221424
  atomic energy  EATOM  =      4914.83591164
  Solvation  Ediel_sol  =         0.00000000
  ---------------------------------------------------
  free energy    TOTEN  =       -16.27357870 eV

  energy without entropy =      -16.27357870  energy(sigma->0) =      -16.27357870


--------------------------------------------------------------------------------------------------------




--------------------------------------- Iteration      1(   6)  ---------------------------------------


    POTLOK:  cpu time    0.0059: real time    0.0060
    SETDIJ:  cpu time    0.0051: real time    0.0051
     EDDAV:  cpu time    0.4353: real time    0.4364
 BZINTS: Fermi energy:  9.266222; 28.000000 electrons
         Band energy:-409.568329;  BLOECHL correction: -0.036189
       DOS:  cpu time    0.0338: real time    0.0339
    CHARGE:  cpu time    0.0143: real time    0.0144
    MIXING:  cpu time    0.0005: real time    0.0005
    --------------------------------------------
      LOOP:  cpu time    0.4949: real time    0.4962

 eigenvalue-minimisations  :  3420
 total energy-change (2. order) :-0.1820328E+00  (-0.7491922E+00)
 number of electron      27.9999999 magnetization       4.5320674
 augmentation part       17.0681920 magnetization       3.5501433

 Broyden mixing:
  rms(total) = 0.69041E+00    rms(broyden)= 0.69030E+00
  rms(prec ) = 0.86568E+00
  weight for this iteration     100.00

 eigenvalues of (default mixing * dielectric matrix)
  average eigenvalue GAMMA=   0.8373
  0.8373

 Free energy of the ion-electron system (eV)
  ---------------------------------------------------
  alpha Z        PSCENC =       218.87048721
  Ewald energy   TEWEN  =     -3616.56080017
  -Hartree energ DENC   =     -1089.08942677
  -exchange      EXHF   =         0.00000000
  -V(xc)+E(xc)   XCENC  =       140.63935457
  PAW double counting   =      4113.68078266    -4289.26359194
  entropy T*S    EENTRO =         0.00000000
  eigenvalues    EBANDS =      -409.56832866
  atomic energy  EATOM  =      4914.83591164
  Solvation  Ediel_sol  =         0.00000000
  ---------------------------------------------------
  free energy    TOTEN  =       -16.45561146 eV

  energy without entropy =      -16.45561146  energy(sigma->0) =      -16.45561146


--------------------------------------------------------------------------------------------------------




--------------------------------------- Iteration      1(   7)  ---------------------------------------


    POTLOK:  cpu time    0.0063: real time    0.0065
    SETDIJ:  cpu time    0.0051: real time    0.0051
     EDDAV:  cpu time    0.4241: real time    0.4251
 BZINTS: Fermi energy:  9.762919; 28.000000 electrons
         Band energy:-395.178462;  BLOECHL correction: -0.033718
       DOS:  cpu time    0.0338: real time    0.0339
    CHARGE:  cpu time    0.0141: real time    0.0142
    MIXING:  cpu time    0.0003: real time    0.0003
    --------------------------------------------
      LOOP:  cpu time    0.4837: real time    0.4851

 eigenvalue-minimisations  :  3408
 total energy-change (2. order) :-0.5639802E-01  (-0.6144138E-01)
 number of electron      27.9999999 magnetization       4.4437843
 augmentation part       16.7744541 magnetization       3.5268769

 Broyden mixing:
  rms(total) = 0.43035E+00    rms(broyden)= 0.43032E+00
  rms(prec ) = 0.52577E+00
  weight for this iteration     100.00

 eigenvalues of (default mixing * dielectric matrix)
  average eigenvalue GAMMA=   0.7673
  0.9881  0.5466

 Free energy of the ion-electron system (eV)
  ---------------------------------------------------
  alpha Z        PSCENC =       218.87048721
  Ewald energy   TEWEN  =     -3616.56080017
  -Hartree energ DENC   =     -1099.08361738
  -exchange      EXHF   =         0.00000000
  -V(xc)+E(xc)   XCENC  =       141.33167632
  PAW double counting   =      4219.67811951    -4400.40532465
  entropy T*S    EENTRO =         0.00000000
  eigenvalues    EBANDS =      -395.17846196
  atomic energy  EATOM  =      4914.83591164
  Solvation  Ediel_sol  =         0.00000000
  ---------------------------------------------------
  free energy    TOTEN  =       -16.51200948 eV

  energy without entropy =      -16.51200948  energy(sigma->0) =      -16.51200948


--------------------------------------------------------------------------------------------------------




--------------------------------------- Iteration      1(   8)  ---------------------------------------


    POTLOK:  cpu time    0.0059: real time    0.0060
    SETDIJ:  cpu time    0.0048: real time    0.0048
     EDDAV:  cpu time    0.4676: real time    0.4688
 BZINTS: Fermi energy:  9.689065; 28.000000 electrons
         Band energy:-397.451852;  BLOECHL correction: -0.033975
       DOS:  cpu time    0.0337: real time    0.0338
    CHARGE:  cpu time    0.0140: real time    0.0141
    MIXING:  cpu time    0.0003: real time    0.0003
    --------------------------------------------
      LOOP:  cpu time    0.5264: real time    0.5278

 eigenvalue-minimisations  :  3768
 total energy-change (2. order) :-0.1003004E-01  (-0.1500755E-02)
 number of electron      27.9999999 magnetization       4.3701370
 augmentation part       16.8106486 magnetization       3.4534139

 Broyden mixing:
  rms(total) = 0.13693E+00    rms(broyden)= 0.13692E+00
  rms(prec ) = 0.21430E+00
  weight for this iteration     100.00

 eigenvalues of (default mixing * dielectric matrix)
  average eigenvalue GAMMA=   1.0473
  1.6984  0.8569  0.5867

 Free energy of the ion-electron system (eV)
  ---------------------------------------------------
  alpha Z        PSCENC =       218.87048721
  Ewald energy   TEWEN  =     -3616.56080017
  -Hartree energ DENC   =     -1095.15729605
  -exchange      EXHF   =         0.00000000
  -V(xc)+E(xc)   XCENC  =       141.10736836
  PAW double counting   =      4267.71763208    -4449.88349097
  entropy T*S    EENTRO =         0.00000000
  eigenvalues    EBANDS =      -397.45185162
  atomic energy  EATOM  =      4914.83591164
  Solvation  Ediel_sol  =         0.00000000
  ---------------------------------------------------
  free energy    TOTEN  =       -16.52203952 eV

  energy without entropy =      -16.52203952  energy(sigma->0) =      -16.52203952


--------------------------------------------------------------------------------------------------------




--------------------------------------- Iteration      1(   9)  ---------------------------------------


    POTLOK:  cpu time    0.0059: real time    0.0060
    SETDIJ:  cpu time    0.0048: real time    0.0048
     EDDAV:  cpu time    0.4544: real time    0.4555
 BZINTS: Fermi energy:  9.610691; 28.000000 electrons
         Band energy:-399.747981;  BLOECHL correction: -0.034528
       DOS:  cpu time    0.0347: real time    0.0348
    CHARGE:  cpu time    0.0141: real time    0.0141
    MIXING:  cpu time    0.0003: real time    0.0003
    --------------------------------------------
      LOOP:  cpu time    0.5142: real time    0.5155

 eigenvalue-minimisations  :  3672
 total energy-change (2. order) : 0.8176841E-02  (-0.5153935E-03)
 number of electron      27.9999999 magnetization       4.4018599
 augmentation part       16.8468629 magnetization       3.4831780

 Broyden mixing:
  rms(total) = 0.33712E-01    rms(broyden)= 0.33707E-01
  rms(prec ) = 0.45930E-01
  weight for this iteration     100.00

 eigenvalues of (default mixing * dielectric matrix)
  average eigenvalue GAMMA=   1.1854
  2.3397  1.0617  0.6987  0.6415

 Free energy of the ion-electron system (eV)
  ---------------------------------------------------
  alpha Z        PSCENC =       218.87048721
  Ewald energy   TEWEN  =     -3616.56080017
  -Hartree energ DENC   =     -1090.24334622
  -exchange      EXHF   =         0.00000000
  -V(xc)+E(xc)   XCENC  =       140.86472736
  PAW double counting   =      4344.11943942    -4528.65230106
  entropy T*S    EENTRO =         0.00000000
  eigenvalues    EBANDS =      -399.74798086
  atomic energy  EATOM  =      4914.83591164
  Solvation  Ediel_sol  =         0.00000000
  ---------------------------------------------------
  free energy    TOTEN  =       -16.51386268 eV

  energy without entropy =      -16.51386268  energy(sigma->0) =      -16.51386268


--------------------------------------------------------------------------------------------------------




--------------------------------------- Iteration      1(  10)  ---------------------------------------


    POTLOK:  cpu time    0.0059: real time    0.0060
    SETDIJ:  cpu time    0.0048: real time    0.0048
     EDDAV:  cpu time    0.4248: real time    0.4259
 BZINTS: Fermi energy:  9.625008; 28.000000 electrons
         Band energy:-399.209555;  BLOECHL correction: -0.034685
       DOS:  cpu time    0.0311: real time    0.0312
    CHARGE:  cpu time    0.0139: real time    0.0140
    MIXING:  cpu time    0.0004: real time    0.0004
    --------------------------------------------
      LOOP:  cpu time    0.4810: real time    0.4823

 eigenvalue-minimisations  :  3420
 total energy-change (2. order) : 0.1722458E-03  (-0.2248377E-03)
 number of electron      27.9999999 magnetization       4.4066678
 augmentation part       16.8348875 magnetization       3.4852338

 Broyden mixing:
  rms(total) = 0.44160E-02    rms(broyden)= 0.44159E-02
  rms(prec ) = 0.54547E-02
  weight for this iteration     100.00

 eigenvalues of (default mixing * dielectric matrix)
  average eigenvalue GAMMA=   1.1291
  2.4320  1.0998  0.7826  0.6972  0.6338

 Free energy of the ion-electron system (eV)
  ---------------------------------------------------
  alpha Z        PSCENC =       218.87048721
  Ewald energy   TEWEN  =     -3616.56080017
  -Hartree energ DENC   =     -1089.85297286
  -exchange      EXHF   =         0.00000000
  -V(xc)+E(xc)   XCENC  =       140.87202180
  PAW double counting   =      4372.97665320    -4558.44543644
  entropy T*S    EENTRO =         0.00000000
  eigenvalues    EBANDS =      -399.20955481
  atomic energy  EATOM  =      4914.83591164
  Solvation  Ediel_sol  =         0.00000000
  ---------------------------------------------------
  free energy    TOTEN  =       -16.51369043 eV

  energy without entropy =      -16.51369043  energy(sigma->0) =      -16.51369043


--------------------------------------------------------------------------------------------------------




--------------------------------------- Iteration      1(  11)  ---------------------------------------


    POTLOK:  cpu time    0.0059: real time    0.0060
    SETDIJ:  cpu time    0.0048: real time    0.0048
     EDDAV:  cpu time    0.4477: real time    0.4488
 BZINTS: Fermi energy:  9.623450; 28.000000 electrons
         Band energy:-399.241579;  BLOECHL correction: -0.034703
       DOS:  cpu time    0.0338: real time    0.0338
    CHARGE:  cpu time    0.0141: real time    0.0141
    MIXING:  cpu time    0.0004: real time    0.0004
    --------------------------------------------
      LOOP:  cpu time    0.5066: real time    0.5079

 eigenvalue-minimisations  :  3600
 total energy-change (2. order) :-0.5915379E-04  (-0.4844952E-05)
 number of electron      27.9999999 magnetization       4.4060634
 augmentation part       16.8354336 magnetization       3.4848954

 Broyden mixing:
  rms(total) = 0.24275E-02    rms(broyden)= 0.24274E-02
  rms(prec ) = 0.32726E-02
  weight for this iteration     100.00

 eigenvalues of (default mixing * dielectric matrix)
  average eigenvalue GAMMA=   1.2934
  2.3003  2.3003  1.0747  0.6331  0.7546  0.6978

 Free energy of the ion-electron system (eV)
  ---------------------------------------------------
  alpha Z        PSCENC =       218.87048721
  Ewald energy   TEWEN  =     -3616.56080017
  -Hartree energ DENC   =     -1089.84547385
  -exchange      EXHF   =         0.00000000
  -V(xc)+E(xc)   XCENC  =       140.87444040
  PAW double counting   =      4374.19746926    -4559.64420474
  entropy T*S    EENTRO =         0.00000000
  eigenvalues    EBANDS =      -399.24157934
  atomic energy  EATOM  =      4914.83591164
  Solvation  Ediel_sol  =         0.00000000
  ---------------------------------------------------
  free energy    TOTEN  =       -16.51374959 eV

  energy without entropy =      -16.51374959  energy(sigma->0) =      -16.51374959


--------------------------------------------------------------------------------------------------------




--------------------------------------- Iteration      1(  12)  ---------------------------------------


    POTLOK:  cpu time    0.0060: real time    0.0061
    SETDIJ:  cpu time    0.0048: real time    0.0048
     EDDAV:  cpu time    0.4810: real time    0.4822
 BZINTS: Fermi energy:  9.621923; 28.000000 electrons
         Band energy:-399.275829;  BLOECHL correction: -0.034715
       DOS:  cpu time    0.0338: real time    0.0338
    CHARGE:  cpu time    0.0143: real time    0.0143
    MIXING:  cpu time    0.0004: real time    0.0005
    --------------------------------------------
      LOOP:  cpu time    0.5402: real time    0.5417

 eigenvalue-minimisations  :  3828
 total energy-change (2. order) :-0.8152397E-05  (-0.4892478E-06)
 number of electron      27.9999999 magnetization       4.4057879
 augmentation part       16.8361433 magnetization       3.4848828

 Broyden mixing:
  rms(total) = 0.95730E-03    rms(broyden)= 0.95726E-03
  rms(prec ) = 0.13550E-02
  weight for this iteration     100.00

 eigenvalues of (default mixing * dielectric matrix)
  average eigenvalue GAMMA=   1.2307
  2.3868  2.3868  1.0833  0.7886  0.7173  0.6260  0.6260

 Free energy of the ion-electron system (eV)
  ---------------------------------------------------
  alpha Z        PSCENC =       218.87048721
  Ewald energy   TEWEN  =     -3616.56080017
  -Hartree energ DENC   =     -1089.89698563
  -exchange      EXHF   =         0.00000000
  -V(xc)+E(xc)   XCENC  =       140.87710928
  PAW double counting   =      4375.25984254    -4560.62349343
  entropy T*S    EENTRO =         0.00000000
  eigenvalues    EBANDS =      -399.27582918
  atomic energy  EATOM  =      4914.83591164
  Solvation  Ediel_sol  =         0.00000000
  ---------------------------------------------------
  free energy    TOTEN  =       -16.51375774 eV

  energy without entropy =      -16.51375774  energy(sigma->0) =      -16.51375774


--------------------------------------------------------------------------------------------------------




--------------------------------------- Iteration      1(  13)  ---------------------------------------


    POTLOK:  cpu time    0.0060: real time    0.0063
    SETDIJ:  cpu time    0.0050: real time    0.0050
     EDDAV:  cpu time    0.4399: real time    0.4410
 BZINTS: Fermi energy:  9.622525; 28.000000 electrons
         Band energy:-399.263451;  BLOECHL correction: -0.034707
       DOS:  cpu time    0.0330: real time    0.0331
    CHARGE:  cpu time    0.0140: real time    0.0140
    MIXING:  cpu time    0.0004: real time    0.0004
    --------------------------------------------
      LOOP:  cpu time    0.4983: real time    0.4998

 eigenvalue-minimisations  :  3528
 total energy-change (2. order) : 0.6769218E-05  (-0.1340105E-06)
 number of electron      27.9999999 magnetization       4.4055862
 augmentation part       16.8358417 magnetization       3.4845712

 Broyden mixing:
  rms(total) = 0.24825E-03    rms(broyden)= 0.24821E-03
  rms(prec ) = 0.33897E-03
  weight for this iteration     100.00

 eigenvalues of (default mixing * dielectric matrix)
  average eigenvalue GAMMA=   1.2909
  2.5220  2.4548  1.4768  1.0638  0.8084  0.6260  0.6877  0.6877

 Free energy of the ion-electron system (eV)
  ---------------------------------------------------
  alpha Z        PSCENC =       218.87048721
  Ewald energy   TEWEN  =     -3616.56080017
  -Hartree energ DENC   =     -1089.90406007
  -exchange      EXHF   =         0.00000000
  -V(xc)+E(xc)   XCENC  =       140.87700720
  PAW double counting   =      4375.38185476    -4560.75070013
  entropy T*S    EENTRO =         0.00000000
  eigenvalues    EBANDS =      -399.26345142
  atomic energy  EATOM  =      4914.83591164
  Solvation  Ediel_sol  =         0.00000000
  ---------------------------------------------------
  free energy    TOTEN  =       -16.51375097 eV

  energy without entropy =      -16.51375097  energy(sigma->0) =      -16.51375097


--------------------------------------------------------------------------------------------------------




--------------------------------------- Iteration      1(  14)  ---------------------------------------


    POTLOK:  cpu time    0.0064: real time    0.0064
    SETDIJ:  cpu time    0.0048: real time    0.0048
     EDDAV:  cpu time    0.3615: real time    0.3625
 BZINTS: Fermi energy:  9.622765; 28.000000 electrons
         Band energy:-399.258619;  BLOECHL correction: -0.034706
       DOS:  cpu time    0.0338: real time    0.0338
    CHARGE:  cpu time    0.0140: real time    0.0141
    MIXING:  cpu time    0.0005: real time    0.0005
    --------------------------------------------
      LOOP:  cpu time    0.4210: real time    0.4220

 eigenvalue-minimisations  :  2640
 total energy-change (2. order) : 0.1564199E-05  (-0.1555231E-07)
 number of electron      27.9999999 magnetization       4.4056040
 augmentation part       16.8357279 magnetization       3.4845552

 Broyden mixing:
  rms(total) = 0.61845E-04    rms(broyden)= 0.61628E-04
  rms(prec ) = 0.81406E-04
  weight for this iteration     100.00

 eigenvalues of (default mixing * dielectric matrix)
  average eigenvalue GAMMA=   1.2119
  2.6073  2.4668  1.2868  1.0499  0.8268  0.6318  0.6667  0.6855  0.6855

 Free energy of the ion-electron system (eV)
  ---------------------------------------------------
  alpha Z        PSCENC =       218.87048721
  Ewald energy   TEWEN  =     -3616.56080017
  -Hartree energ DENC   =     -1089.90650680
  -exchange      EXHF   =         0.00000000
  -V(xc)+E(xc)   XCENC  =       140.87684084
  PAW double counting   =      4375.38298746    -4560.75405014
  entropy T*S    EENTRO =         0.00000000
  eigenvalues    EBANDS =      -399.25861945
  atomic energy  EATOM  =      4914.83591164
  Solvation  Ediel_sol  =         0.00000000
  ---------------------------------------------------
  free energy    TOTEN  =       -16.51374941 eV

  energy without entropy =      -16.51374941  energy(sigma->0) =      -16.51374941


--------------------------------------------------------------------------------------------------------




--------------------------------------- Iteration      1(  15)  ---------------------------------------


    POTLOK:  cpu time    0.0059: real time    0.0060
    SETDIJ:  cpu time    0.0048: real time    0.0048
     EDDAV:  cpu time    0.2801: real time    0.2808
 BZINTS: Fermi energy:  9.622733; 28.000000 electrons
         Band energy:-399.259494;  BLOECHL correction: -0.034706
       DOS:  cpu time    0.0329: real time    0.0329
    --------------------------------------------
      LOOP:  cpu time    0.3237: real time    0.3246

 eigenvalue-minimisations  :  1728
 total energy-change (2. order) : 0.3840796E-08  (-0.1157364E-08)
 number of electron      27.9999999 magnetization       4.4056040
 augmentation part       16.8357279 magnetization       3.4845552

 Free energy of the ion-electron system (eV)
  ---------------------------------------------------
  alpha Z        PSCENC =       218.87048721
  Ewald energy   TEWEN  =     -3616.56080017
  -Hartree energ DENC   =     -1089.90611524
  -exchange      EXHF   =         0.00000000
  -V(xc)+E(xc)   XCENC  =       140.87687171
  PAW double counting   =      4375.37868510    -4560.74929572
  entropy T*S    EENTRO =         0.00000000
  eigenvalues    EBANDS =      -399.25949392
  atomic energy  EATOM  =      4914.83591164
  Solvation  Ediel_sol  =         0.00000000
  ---------------------------------------------------
  free energy    TOTEN  =       -16.51374940 eV

  energy without entropy =      -16.51374940  energy(sigma->0) =      -16.51374940


--------------------------------------------------------------------------------------------------------




 average (electrostatic) potential at core
  the test charge radii are     0.9500
  (the norm of the test charge is              1.0000)
       1 -73.6652       2 -73.6652
 
 
 
 E-fermi :   9.6227     XC(G=0): -13.6245     alpha+bet :-17.4163


 spin component 1

 k-point     1 :       0.0500    0.0500    0.0500
  band No.  band energies     occupation 
      1     -44.5598      1.00000
      2     -44.5598      1.00000
      3     -44.5456      1.00000
      4     -44.2888      1.00000
      5     -44.2740      1.00000
      6     -44.2740      1.00000
      7       1.3979      1.00000
      8       4.9387      1.00000
      9       4.9387      1.00000
     10       7.3050      1.00000
     11       7.3050      1.00000
     12       7.4311      1.00000
     13       8.5806      1.00000
     14       8.5806      1.00000
     15       9.4948      1.00000
     16       9.6871      0.60095
     17       9.6871      0.00980
     18      19.1992      0.00000
     19      19.1992      0.00000
     20      19.4412      0.00000
     21      25.8101      0.00000
     22      25.8101      0.00000
     23      30.6982      0.00000
     24      33.3489      0.00000

 k-point     2 :       0.1500    0.0500    0.0500
  band No.  band energies     occupation 
      1     -44.5658      1.00000
      2     -44.5451      1.00000
      3     -44.5235      1.00000
      4     -44.3205      1.00000
      5     -44.2872      1.00000
      6     -44.2795      1.00000
      7       1.8016      1.00000
      8       5.1066      1.00000
      9       5.1088      1.00000
     10       7.2465      1.00000
     11       7.2948      1.00000
     12       7.5993      1.00000
     13       8.4144      1.00000
     14       8.6555      1.00000
     15       9.1041      1.00000
     16       9.3725      1.02105
     17       9.6657      0.13626
     18      17.0985      0.00000
     19      19.9182      0.00000
     20      20.0953      0.00000
     21      25.9617      0.00000
     22      27.1439      0.00000
     23      31.5527      0.00000
     24      32.1506      0.00000

 k-point     3 :       0.2500    0.0500    0.0500
  band No.  band energies     occupation 
      1     -44.5631      1.00000
      2     -44.5173      1.00000
      3     -44.4927      1.00000
      4     -44.3683      1.00000
      5     -44.3126      1.00000
      6     -44.2996      1.00000
      7       2.5671      1.00000
      8       5.3679      1.00000
      9       5.4278      1.00000
     10       7.2426      1.00000
     11       7.2876      1.00000
     12       7.8418      1.00000
     13       8.1081      1.00000
     14       8.6067      1.00000
     15       8.7948      1.00000
     16       8.8890      1.00000
     17       9.4859      1.03934
     18      14.5754      0.00000
     19      21.1874      0.00000
     20      21.3581      0.00000
     21      26.2945      0.00000
     22      27.9720      0.00000
     23      29.6289      0.00000
     24      31.2960      0.00000

 k-point     4 :       0.3500    0.0500    0.0500
  band No.  band energies     occupation 
      1     -44.5486      1.00000
      2     -44.4794      1.00000
      3     -44.4548      1.00000
      4     -44.4236      1.00000
      5     -44.3480      1.00000
      6     -44.3309      1.00000
      7       3.5892      1.00000
      8       5.5404      1.00000
      9       5.8729      1.00000
     10       7.2460      1.00000
     11       7.3215      1.00000
     12       7.7682      1.00000
     13       8.1305      1.00000
     14       8.1504      1.00000
     15       8.3930      1.00000
     16       9.0193      1.00000
     17       9.2004      1.03864
     18      12.2831      0.00000
     19      22.7942      0.00000
     20      23.0070      0.00000
     21      26.8754      0.00000
     22      27.8748      0.00000
     23      28.6107      0.00000
     24      29.1473      0.00000

 k-point     5 :       0.4500    0.0500    0.0500
  band No.  band energies     occupation 
      1     -44.5198      1.00000
      2     -44.4767      1.00000
      3     -44.4356      1.00000
      4     -44.4125      1.00000
      5     -44.3903      1.00000
      6     -44.3699      1.00000
      7       4.6411      1.00000
      8       5.3583      1.00000
      9       6.3950      1.00000
     10       6.9177      1.00000
     11       7.4993      1.00000
     12       7.7313      1.00000
     13       7.7627      1.00000
     14       7.9856      1.00000
     15       8.4992      1.00000
     16       8.8575      1.00000
     17       9.4833      0.98553
     18      10.5196      0.00000
     19      24.5321      0.00000
     20      24.9044      0.00000
     21      26.2265      0.00000
     22      26.9670      0.00000
     23      27.8211      0.00000
     24      29.2507      0.00000

 k-point     6 :       0.1500    0.1500    0.0500
  band No.  band energies     occupation 
      1     -44.5799      1.00000
      2     -44.5363      1.00000
      3     -44.4911      1.00000
      4     -44.3620      1.00000
      5     -44.2975      1.00000
      6     -44.2741      1.00000
      7       2.1895      1.00000
      8       5.2395      1.00000
      9       5.2983      1.00000
     10       7.0939      1.00000
     11       7.2377      1.00000
     12       7.8702      1.00000
     13       8.4388      1.00000
     14       8.6108      1.00000
     15       8.6247      1.00000
     16       9.1497      1.00690
     17       9.7348      0.03149
     18      17.1956      0.00000
     19      18.2808      0.00000
     20      20.6505      0.00000
     21      26.6283      0.00000
     22      28.5393      0.00000
     23      29.9220      0.00000
     24      31.9695      0.00000

 k-point     7 :       0.2500    0.1500    0.0500
  band No.  band energies     occupation 
      1     -44.5892      1.00000
      2     -44.5107      1.00000
      3     -44.4533      1.00000
      4     -44.4167      1.00000
      5     -44.3205      1.00000
      6     -44.2815      1.00000
      7       2.9158      1.00000
      8       5.4558      1.00000
      9       5.6210      1.00000
     10       6.9884      1.00000
     11       7.1826      1.00000
     12       8.1059      1.00000
     13       8.2003      1.00000
     14       8.2827      1.00000
     15       8.7217      1.00000
     16       8.7246      1.00000
     17       9.6885      0.28940
     18      14.9836      0.00000
     19      19.0118      0.00000
     20      21.7953      0.00000
     21      27.0200      0.00000
     22      27.7477      0.00000
     23      29.9240      0.00000
     24      30.6412      0.00000

 k-point     8 :       0.3500    0.1500    0.0500
  band No.  band energies     occupation 
      1     -44.5851      1.00000
      2     -44.4753      1.00000
      3     -44.4745      1.00000
      4     -44.4126      1.00000
      5     -44.3529      1.00000
      6     -44.3025      1.00000
      7       3.8580      1.00000
      8       5.5958      1.00000
      9       6.0120      1.00000
     10       6.9648      1.00000
     11       7.1191      1.00000
     12       7.6672      1.00000
     13       8.0934      1.00000
     14       8.3378      1.00000
     15       8.5644      1.00000
     16       8.9634      1.00000
     17       9.4968      0.92405
     18      12.6531      0.00000
     19      20.3759      0.00000
     20      23.3118      0.00000
     21      25.6603      0.00000
     22      27.5891      0.00000
     23      28.7791      0.00000
     24      30.9264      0.00000

 k-point     9 :       0.4500    0.1500    0.0500
  band No.  band energies     occupation 
      1     -44.5641      1.00000
      2     -44.5261      1.00000
      3     -44.4342      1.00000
      4     -44.3920      1.00000
      5     -44.3717      1.00000
      6     -44.3337      1.00000
      7       4.7818      1.00000
      8       5.4047      1.00000
      9       6.4370      1.00000
     10       6.8152      1.00000
     11       7.1500      1.00000
     12       7.3558      1.00000
     13       8.0551      1.00000
     14       8.1287      1.00000
     15       8.8894      1.00000
     16       9.2082      1.00000
     17       9.5413      0.77862
     18      10.7643      0.00000
     19      21.9647      0.00000
     20      23.7291      0.00000
     21      25.0471      0.00000
     22      26.8830      0.00000
     23      28.4946      0.00000
     24      29.8473      0.00000

 k-point    10 :       0.2500    0.2500    0.0500
  band No.  band energies     occupation 
      1     -44.6123      1.00000
      2     -44.4901      1.00000
      3     -44.4764      1.00000
      4     -44.4104      1.00000
      5     -44.3382      1.00000
      6     -44.2741      1.00000
      7       3.5388      1.00000
      8       5.5108      1.00000
      9       6.0144      1.00000
     10       6.7717      1.00000
     11       7.1539      1.00000
     12       7.5989      1.00000
     13       8.4265      1.00000
     14       8.4289      1.00000
     15       8.6231      1.00000
     16       8.6650      1.00000
     17       9.8079     -0.03387
     18      14.8627      0.00000
     19      17.4658      0.00000
     20      22.7544      0.00000
     21      25.3833      0.00000
     22      27.3663      0.00000
     23      30.0595      0.00000
     24      32.3851      0.00000

 k-point    11 :       0.3500    0.2500    0.0500
  band No.  band energies     occupation 
      1     -44.6216      1.00000
      2     -44.5346      1.00000
      3     -44.4613      1.00000
      4     -44.3689      1.00000
      5     -44.3636      1.00000
      6     -44.2814      1.00000
      7       4.2636      1.00000
      8       5.4681      1.00000
      9       6.4675      1.00000
     10       6.6642      1.00000
     11       7.1895      1.00000
     12       7.2437      1.00000
     13       8.2729      1.00000
     14       8.4048      1.00000
     15       8.8098      1.00000
     16       9.0699      1.02186
     17       9.7580      0.00404
     18      13.0480      0.00000
     19      18.1034      0.00000
     20      23.1678      0.00000
     21      24.0659      0.00000
     22      27.8481      0.00000
     23      28.7851      0.00000
     24      31.4417      0.00000

 k-point    12 :       0.4500    0.2500    0.0500
  band No.  band energies     occupation 
      1     -44.6119      1.00000
      2     -44.5820      1.00000
      3     -44.4282      1.00000
      4     -44.3945      1.00000
      5     -44.3316      1.00000
      6     -44.3014      1.00000
      7       4.8668      1.00000
      8       5.2599      1.00000
      9       6.6825      1.00000
     10       6.7711      1.00000
     11       7.0123      1.00000
     12       7.2244      1.00000
     13       8.3126      1.00000
     14       8.3955      1.00000
     15       9.1812      1.00000
     16       9.5469      0.95181
     17       9.7287      0.02985
     18      11.1093      0.00000
     19      19.4887      0.00000
     20      21.1930      0.00000
     21      25.5956      0.00000
     22      27.2067      0.00000
     23      28.6469      0.00000
     24      29.8690      0.00000

 k-point    13 :       0.3500    0.3500    0.0500
  band No.  band energies     occupation 
      1     -44.6447      1.00000
      2     -44.5891      1.00000
      3     -44.4419      1.00000
      4     -44.3791      1.00000
      5     -44.3305      1.00000
      6     -44.2743      1.00000
      7       4.6034      1.00000
      8       5.2504      1.00000
      9       6.4675      1.00000
     10       6.7903      1.00000
     11       7.0690      1.00000
     12       7.8005      1.00000
     13       8.3290      1.00000
     14       8.5821      1.00000
     15       8.7315      1.00000
     16       9.5046      0.96295
     17       9.8585     -0.00497
     18      12.6723      0.00000
     19      17.0754      0.00000
     20      20.9325      0.00000
     21      25.1100      0.00000
     22      28.2078      0.00000
     23      28.4080      0.00000
     24      30.7487      0.00000

 k-point    14 :       0.4500    0.3500    0.0500
  band No.  band energies     occupation 
      1     -44.6480      1.00000
      2     -44.6289      1.00000
      3     -44.4201      1.00000
      4     -44.3985      1.00000
      5     -44.3005      1.00000
      6     -44.2811      1.00000
      7       4.8280      1.00000
      8       5.0277      1.00000
      9       6.4162      1.00000
     10       6.5256      1.00000
     11       7.6337      1.00000
     12       8.0157      1.00000
     13       8.4772      1.00000
     14       8.6084      1.00000
     15       9.2345      1.00000
     16       9.7475      0.31716
     17      10.0490      0.00000
     18      11.2872      0.00000
     19      17.6522      0.00000
     20      19.0564      0.00000
     21      26.3160      0.00000
     22      27.4991      0.00000
     23      28.8182      0.00000
     24      29.7269      0.00000

 k-point    15 :       0.4500    0.4500    0.0500
  band No.  band energies     occupation 
      1     -44.6646      1.00000
      2     -44.6581      1.00000
      3     -44.4118      1.00000
      4     -44.4043      1.00000
      5     -44.2810      1.00000
      6     -44.2743      1.00000
      7       4.7958      1.00000
      8       4.8572      1.00000
      9       6.2869      1.00000
     10       6.3244      1.00000
     11       8.3606      1.00000
     12       8.5985      1.00000
     13       8.6195      1.00000
     14       8.7804      1.00000
     15       9.2763      1.00000
     16       9.7025      0.28344
     17      10.4351      0.00000
     18      10.9855      0.00000
     19      16.9430      0.00000
     20      17.5291      0.00000
     21      27.0344      0.00000
     22      27.4879      0.00000
     23      29.0846      0.00000
     24      29.4296      0.00000

 k-point    16 :       0.1500    0.1500    0.1500
  band No.  band energies     occupation 
      1     -44.5642      1.00000
      2     -44.5642      1.00000
      3     -44.4554      1.00000
      4     -44.3995      1.00000
      5     -44.2882      1.00000
      6     -44.2882      1.00000
      7       2.5667      1.00000
      8       5.4268      1.00000
      9       5.4268      1.00000
     10       7.0364      1.00000
     11       7.0364      1.00000
     12       8.0862      1.00000
     13       8.1862      1.00000
     14       8.5283      1.00000
     15       8.5283      1.00000
     16       9.4249      0.99979
     17       9.4249      1.11246
     18      17.8409      0.00000
     19      17.8409      0.00000
     20      19.2369      0.00000
     21      28.7874      0.00000
     22      28.7874      0.00000
     23      29.7385      0.00000
     24      29.7385      0.00000

 k-point    17 :       0.2500    0.1500    0.1500
  band No.  band energies     occupation 
      1     -44.5844      1.00000
      2     -44.5345      1.00000
      3     -44.4509      1.00000
      4     -44.4172      1.00000
      5     -44.3155      1.00000
      6     -44.2877      1.00000
      7       3.2655      1.00000
      8       5.6660      1.00000
      9       5.7001      1.00000
     10       6.9039      1.00000
     11       6.9352      1.00000
     12       7.5734      1.00000
     13       8.3826      1.00000
     14       8.5851      1.00000
     15       8.6829      1.00000
     16       8.9720      1.00000
     17       9.5063      0.95280
     18      15.4699      0.00000
     19      18.9548      0.00000
     20      19.8767      0.00000
     21      27.5255      0.00000
     22      28.5415      0.00000
     23      29.3030      0.00000
     24      30.5092      0.00000

 k-point    18 :       0.3500    0.1500    0.1500
  band No.  band energies     occupation 
      1     -44.5906      1.00000
      2     -44.5039      1.00000
      3     -44.4940      1.00000
      4     -44.3804      1.00000
      5     -44.3534      1.00000
      6     -44.2984      1.00000
      7       4.1487      1.00000
      8       5.8195      1.00000
      9       5.9791      1.00000
     10       6.7956      1.00000
     11       6.9296      1.00000
     12       7.2682      1.00000
     13       8.2263      1.00000
     14       8.5460      1.00000
     15       8.8084      1.00000
     16       9.1281      1.00000
     17       9.4068      0.92711
     18      13.1242      0.00000
     19      20.3545      0.00000
     20      21.0651      0.00000
     21      25.4922      0.00000
     22      26.4577      0.00000
     23      30.1153      0.00000
     24      31.4557      0.00000

 k-point    19 :       0.4500    0.1500    0.1500
  band No.  band energies     occupation 
      1     -44.5789      1.00000
      2     -44.5489      1.00000
      3     -44.4472      1.00000
      4     -44.3987      1.00000
      5     -44.3468      1.00000
      6     -44.3188      1.00000
      7       4.9804      1.00000
      8       5.5624      1.00000
[...]
     19      18.3221      0.00000
     20      20.7969      0.00000
     21      22.3835      0.00000
     22      24.8362      0.00000
     23      26.2504      0.00000
     24      30.1358      0.00000

 k-point    30 :       0.4500    0.3500    0.2500
  band No.  band energies     occupation 
      1     -42.0271      1.00000
      2     -42.0268      1.00000
      3     -41.8755      1.00000
      4     -41.8242      1.00000
      5     -41.7180      1.00000
      6     -41.7137      1.00000
      7       6.7330      1.00000
      8       7.0453      1.00000
      9       7.9678      1.00000
     10       7.9787      1.00000
     11       8.3647      1.00000
     12       8.4914      1.00000
     13      11.1844      0.00000
     14      11.2349      0.00000
     15      11.5152      0.00000
     16      11.5335      0.00000
     17      13.8173      0.00000
     18      14.8897      0.00000
     19      19.1260      0.00000
     20      20.5766      0.00000
     21      21.9127      0.00000
     22      23.4380      0.00000
     23      26.7658      0.00000
     24      28.2362      0.00000

 k-point    31 :       0.4500    0.4500    0.2500
  band No.  band energies     occupation 
      1     -42.0349      1.00000
      2     -42.0342      1.00000
      3     -41.8561      1.00000
      4     -41.8353      1.00000
      5     -41.7244      1.00000
      6     -41.7206      1.00000
      7       6.8532      1.00000
      8       6.9338      1.00000
      9       7.8851      1.00000
     10       7.9000      1.00000
     11       8.6613      1.00000
     12       8.7305      1.00000
     13      11.3011      0.00000
     14      11.3258      0.00000
     15      11.5266      0.00000
     16      11.5392      0.00000
     17      14.4941      0.00000
     18      15.0168      0.00000
     19      18.3896      0.00000
     20      19.0493      0.00000
     21      23.0061      0.00000
     22      24.1213      0.00000
     23      25.2328      0.00000
     24      26.3291      0.00000

 k-point    32 :       0.3500    0.3500    0.3500
  band No.  band energies     occupation 
      1     -42.0110      1.00000
      2     -41.9607      1.00000
      3     -41.9607      1.00000
      4     -41.7721      1.00000
      5     -41.7721      1.00000
      6     -41.7219      1.00000
      7       6.9264      1.00000
      8       7.5007      1.00000
      9       7.9280      1.00000
     10       7.9280      1.00000
     11       8.0744      1.00000
     12       8.0744      1.00000
     13      11.3766      0.00000
     14      11.3766      0.00000
     15      11.4154      0.00000
     16      11.4154      0.00000
     17      13.8656      0.00000
     18      17.4972      0.00000
     19      17.4972      0.00000
     20      19.8864      0.00000
     21      22.8235      0.00000
     22      22.8235      0.00000
     23      24.1458      0.00000
     24      28.0395      0.00000

 k-point    33 :       0.4500    0.3500    0.3500
  band No.  band energies     occupation 
      1     -42.0057      1.00000
      2     -41.9898      1.00000
      3     -41.8980      1.00000
      4     -41.8329      1.00000
      5     -41.7557      1.00000
      6     -41.7369      1.00000
      7       7.2801      1.00000
      8       7.3825      1.00000
      9       7.8726      1.00000
     10       7.9209      1.00000
     11       8.0470      1.00000
     12       8.2173      1.00000
     13      11.3599      0.00000
     14      11.3852      0.00000
     15      11.5030      0.00000
     16      11.5142      0.00000
     17      14.8064      0.00000
     18      16.0277      0.00000
     19      19.1307      0.00000
     20      20.4297      0.00000
     21      20.9114      0.00000
     22      21.6693      0.00000
     23      24.5507      0.00000
     24      26.0866      0.00000

 k-point    34 :       0.4500    0.4500    0.3500
  band No.  band energies     occupation 
      1     -41.9885      1.00000
      2     -41.9773      1.00000
      3     -41.8842      1.00000
      4     -41.8480      1.00000
      5     -41.7783      1.00000
      6     -41.7637      1.00000
      7       7.4287      1.00000
      8       7.4423      1.00000
      9       7.8028      1.00000
     10       7.8457      1.00000
     11       8.1732      1.00000
     12       8.2615      1.00000
     13      11.4438      0.00000
     14      11.4546      0.00000
     15      11.5335      0.00000
     16      11.5378      0.00000
     17      15.8061      0.00000
     18      16.5885      0.00000
     19      18.5408      0.00000
     20      19.5006      0.00000
     21      21.0124      0.00000
     22      22.1183      0.00000
     23      22.9692      0.00000
     24      24.1592      0.00000

 k-point    35 :       0.4500    0.4500    0.4500
  band No.  band energies     occupation 
      1     -41.9436      1.00000
      2     -41.9112      1.00000
      3     -41.9112      1.00000
      4     -41.8426      1.00000
      5     -41.8426      1.00000
      6     -41.8101      1.00000
      7       7.6629      1.00000
      8       7.8095      1.00000
      9       7.8095      1.00000
     10       7.9083      1.00000
     11       7.9536      1.00000
     12       7.9536      1.00000
     13      11.5395      0.00000
     14      11.5395      0.00000
     15      11.5425      0.00000
     16      11.5425      0.00000
     17      17.1204      0.00000
     18      18.3145      0.00000
     19      18.3145      0.00000
     20      20.0018      0.00000
     21      20.1674      0.00000
     22      20.1674      0.00000
     23      21.5179      0.00000
     24      22.3096      0.00000


--------------------------------------------------------------------------------------------------------


 soft charge-density along one line, spin component           1
         0         1         2         3         4         5         6         7         8         9
 total charge-density along one line
 
 soft charge-density along one line, spin component           2
         0         1         2         3         4         5         6         7         8         9
 total charge-density along one line
 
 pseudopotential strength for first ion, spin component:           1
-44.857  -0.000   0.000   7.570   0.000  -0.000  -0.000   0.000
 -0.000 -44.857  -0.000   0.000   7.570   0.000  -0.000   0.000
  0.000  -0.000 -44.857  -0.000   0.000   7.570   0.000  -0.000
  7.570   0.000  -0.000   5.638   0.000  -0.000   0.000  -0.000
  0.000   7.570   0.000   0.000   5.638   0.000   0.000  -0.000
 -0.000   0.000   7.570  -0.000   0.000   5.638  -0.000   0.000
 -0.000  -0.000   0.000   0.000   0.000  -0.000  -1.981  -0.000
  0.000   0.000  -0.000  -0.000  -0.000   0.000  -0.000  -1.981
 -0.000   0.000   0.000   0.000  -0.000  -0.000  -0.000  -0.000
 -0.000   0.000   0.000   0.000   0.000  -0.000  -0.000  -0.000
 -0.000   0.000   0.000   0.000  -0.000   0.000   0.000   0.000
  0.000  -0.000   0.000   0.000   0.000  -0.000  -2.496  -0.000
  0.000   0.000  -0.000  -0.000  -0.000   0.000  -0.000  -2.496
 -0.000   0.000   0.000   0.000  -0.000   0.000  -0.000  -0.000
 -0.000   0.000   0.000   0.000  -0.000  -0.000  -0.000  -0.000
 -0.000   0.000   0.000   0.000  -0.000   0.000   0.000   0.000
 -0.000  -0.000   0.000  -0.000  -0.000  -0.000  -0.000   0.000
 -0.000  -0.000  -0.000  -0.000  -0.000  -0.000  -0.000   0.000
 pseudopotential strength for first ion, spin component:           2
-42.886  -0.000  -0.000   6.737   0.000   0.000  -0.000   0.000
 -0.000 -42.886   0.000   0.000   6.737  -0.000   0.000   0.000
 -0.000   0.000 -42.886   0.000  -0.000   6.737   0.000   0.000
  6.737   0.000   0.000   5.866   0.000   0.000   0.000  -0.000
  0.000   6.737  -0.000   0.000   5.866   0.000  -0.000  -0.000
  0.000  -0.000   6.737   0.000   0.000   5.866  -0.000  -0.000
 -0.000   0.000   0.000   0.000  -0.000  -0.000  -0.455  -0.000
  0.000   0.000   0.000  -0.000  -0.000  -0.000  -0.000  -0.455
 -0.000   0.000  -0.000   0.000  -0.000  -0.000  -0.000  -0.000
  0.000  -0.000   0.000  -0.000   0.000  -0.000  -0.000  -0.000
 -0.000   0.000  -0.000   0.000  -0.000   0.000   0.000   0.000
 -0.000   0.000   0.000   0.000  -0.000  -0.000  -0.995  -0.000
  0.000   0.000   0.000  -0.000  -0.000  -0.000  -0.000  -0.995
 -0.000   0.000   0.000   0.000  -0.000   0.000  -0.000  -0.000
  0.000   0.000   0.000  -0.000  -0.000  -0.000  -0.000  -0.000
 -0.000   0.000   0.000   0.000  -0.000   0.000   0.000   0.000
 -0.000  -0.000   0.000  -0.000  -0.000   0.000   0.000   0.000
 -0.000  -0.000   0.000  -0.000  -0.000   0.000   0.000   0.000
 total augmentation occupancy for first ion, spin component:           1
  1.992   0.000   0.000  -0.027   0.000  -0.000   0.000   0.000   0.000  -0.000  -0.000   0.000   0.000   0.000  -0.000   0.000
  0.000   1.992   0.000  -0.000  -0.027  -0.000  -0.000   0.000   0.000   0.000   0.000   0.000   0.000   0.000   0.000   0.000
  0.000   0.000   1.992   0.000   0.000  -0.027   0.000   0.000   0.000   0.000   0.000   0.000  -0.000  -0.000   0.000   0.000
 -0.027   0.000   0.000   0.201   0.000   0.000  -0.000   0.000   0.000   0.000   0.000   0.000  -0.000  -0.000   0.000   0.000
 -0.000  -0.027  -0.000   0.000   0.201  -0.000   0.000   0.000   0.000   0.000   0.000   0.000   0.000   0.000   0.000   0.000
 -0.000   0.000  -0.027   0.000  -0.000   0.201   0.000   0.000  -0.000   0.000   0.000  -0.000   0.000   0.000   0.000   0.000
  0.000   0.000   0.000   0.000   0.000   0.000   2.170   0.000   0.000  -0.000  -0.000  -1.221  -0.000   0.000  -0.000   0.000
  0.000   0.000   0.000  -0.000   0.000   0.000  -0.000   2.170   0.000  -0.000  -0.000   0.000  -1.221  -0.000  -0.000   0.000
 -0.000  -0.000  -0.000   0.000   0.000   0.000  -0.000   0.000   3.409   0.000  -0.000  -0.000  -0.000  -2.183  -0.000   0.000
  0.000   0.000   0.000   0.000  -0.000   0.000  -0.000  -0.000   0.000   2.170   0.000   0.000   0.000  -0.000  -1.221  -0.000
  0.000  -0.000   0.000   0.000  -0.000  -0.000  -0.000  -0.000   0.000  -0.000   3.409   0.000  -0.000  -0.000   0.000  -2.183
  0.000   0.000   0.000   0.000  -0.000  -0.000  -1.221   0.000   0.000   0.000   0.000   1.647   0.000  -0.000  -0.000   0.000
  0.000   0.000   0.000   0.000  -0.000   0.000   0.000  -1.221  -0.000  -0.000  -0.000   0.000   1.647   0.000   0.000  -0.000
 -0.000  -0.000  -0.000   0.000   0.000   0.000   0.000  -0.000  -2.183  -0.000  -0.000   0.000  -0.000   2.222  -0.000   0.000
  0.000   0.000   0.000   0.000  -0.000  -0.000  -0.000  -0.000   0.000  -1.221   0.000  -0.000   0.000  -0.000   1.647  -0.000
  0.000   0.000   0.000   0.000   0.000   0.000  -0.000  -0.000   0.000  -0.000  -2.183   0.000  -0.000   0.000  -0.000   2.222
  0.000   0.000   0.000   0.000   0.000   0.000  -0.000   0.000  -0.000  -0.000   0.000   0.000   0.000   0.000  -0.000  -0.000
  0.000   0.000   0.000   0.000   0.000   0.000   0.000  -0.000  -0.000  -0.000  -0.000  -0.000   0.000   0.000   0.000   0.000
 total augmentation occupancy for first ion, spin component:           2
 -0.002   0.000   0.000  -0.009   0.000   0.000   0.000   0.000   0.000   0.000   0.000   0.000   0.000   0.000  -0.000  -0.000
  0.000  -0.002   0.000   0.000  -0.009   0.000  -0.000   0.000   0.000   0.000   0.000   0.000   0.000   0.000   0.000  -0.000
  0.000   0.000  -0.002   0.000  -0.000  -0.009   0.000  -0.000   0.000   0.000   0.000   0.000   0.000   0.000   0.000   0.000
 -0.009   0.000   0.000  -0.020   0.000   0.000   0.000  -0.000   0.000   0.000  -0.000  -0.000  -0.000   0.000   0.000   0.000
  0.000  -0.009  -0.000  -0.000  -0.020  -0.000   0.000  -0.000   0.000  -0.000   0.000   0.000  -0.000   0.000   0.000   0.000
  0.000   0.000  -0.009   0.000   0.000  -0.020  -0.000   0.000   0.000  -0.000  -0.000  -0.000   0.000   0.000   0.000   0.000
  0.000  -0.000   0.000  -0.000   0.000  -0.000   1.761   0.000   0.000  -0.000   0.000  -0.663   0.000  -0.000  -0.000   0.000
  0.000   0.000   0.000   0.000  -0.000   0.000   0.000   1.761   0.000   0.000  -0.000   0.000  -0.663   0.000  -0.000   0.000
  0.000   0.000   0.000  -0.000   0.000  -0.000   0.000   0.000   2.825   0.000   0.000   0.000   0.000  -1.165   0.000  -0.000
  0.000   0.000   0.000   0.000   0.000  -0.000  -0.000  -0.000   0.000   1.761   0.000  -0.000  -0.000  -0.000  -0.663  -0.000
 -0.000  -0.000   0.000   0.000   0.000   0.000   0.000  -0.000   0.000  -0.000   2.825   0.000   0.000  -0.000  -0.000  -1.165
  0.000  -0.000   0.000   0.000   0.000  -0.000  -0.663   0.000  -0.000   0.000   0.000  -0.005   0.000  -0.000   0.000  -0.000
  0.000   0.000   0.000   0.000   0.000   0.000  -0.000  -0.663   0.000   0.000   0.000   0.000  -0.005  -0.000   0.000  -0.000
  0.000   0.000   0.000   0.000   0.000   0.000  -0.000  -0.000  -1.165   0.000  -0.000  -0.000   0.000   0.241   0.000   0.000
  0.000   0.000   0.000   0.000   0.000   0.000   0.000   0.000   0.000  -0.663  -0.000   0.000   0.000  -0.000  -0.005   0.000
  0.000  -0.000  -0.000   0.000   0.000   0.000   0.000   0.000  -0.000   0.000  -1.165  -0.000  -0.000  -0.000   0.000   0.241
  0.000   0.000   0.000   0.000   0.000   0.000   0.000   0.000  -0.000   0.000  -0.000  -0.000   0.000  -0.000   0.000  -0.000
  0.000   0.000   0.000   0.000   0.000   0.000   0.000   0.000  -0.000  -0.000   0.000   0.000   0.000   0.000   0.000  -0.000


------------------------ aborting loop because EDIFF is reached ----------------------------------------


 


 total charge     
 
# of ion       s       p       d       tot
------------------------------------------
    1        0.385   6.378   6.074  12.837
    2        0.385   6.378   6.074  12.837
--------------------------------------------------
tot          0.770  12.755  12.149  25.674
 


 magnetization (x)
 
# of ion       s       p       d       tot
------------------------------------------
    1       -0.008  -0.042   2.292   2.243
    2       -0.008  -0.042   2.292   2.243
--------------------------------------------------
tot         -0.016  -0.083   4.584   4.485
 
    CHARGE:  cpu time    0.0135: real time    0.0135
    FORLOC:  cpu time    0.0001: real time    0.0001
    FORNL :  cpu time    0.0797: real time    0.0799
    STRESS:  cpu time    0.2364: real time    0.2371
    FORCOR:  cpu time    0.0056: real time    0.0056
    FORHAR:  cpu time    0.0007: real time    0.0007
    MIXING:  cpu time    0.0005: real time    0.0005
    OFIELD:  cpu time    0.0000: real time    0.0000

  FORCE on cell =-STRESS in cart. coord.  units (eV):
  Direction    XX          YY          ZZ          XY          YZ          ZX
  --------------------------------------------------------------------------------------
  Alpha Z   218.87049   218.87049   218.87049
  Ewald   -1205.52018 -1205.52018 -1205.52018    -0.00000    -0.00000    -0.00000
  Hartree   363.30208   363.30208   363.30208    -0.00000    -0.00000    -0.00000
  E(xc)    -179.78002  -179.78002  -179.78002     0.00000    -0.00000     0.00000
  Local     289.63789   289.63789   289.63789     0.00000     0.00000    -0.00000
  n-local   -60.13694   -54.12983   -50.51872     2.76306    -1.55454     0.58658
  augment   285.45120   285.45120   285.45120     0.00000     0.00000    -0.00000
  Kinetic   283.95631   282.51371   281.76305     2.96166    -0.75162    -0.08648
  Fock        0.00000     0.00000     0.00000     0.00000     0.00000     0.00000
  -------------------------------------------------------------------------------------
  Total      -0.22269    -0.22269    -0.22269     0.00000     0.00000     0.00000
  in kB     -15.57504   -15.57504   -15.57504     0.00000     0.00000     0.00000
  external pressure =      -15.58 kB  Pullay stress =        0.00 kB


 VOLUME and BASIS-vectors are now :
 -----------------------------------------------------------------------------
  energy-cutoff  :      560.00
  volume of cell :       22.91
      direct lattice vectors                 reciprocal lattice vectors
     2.840052000  0.000000000  0.000000000     0.352106229  0.000000000  0.000000000
     0.000000000  2.840052000  0.000000000     0.000000000  0.352106229  0.000000000
     0.000000000  0.000000000  2.840052000     0.000000000  0.000000000  0.352106229

  length of vectors
     2.840052000  2.840052000  2.840052000     0.352106229  0.352106229  0.352106229


 FORCES acting on ions
    electron-ion (+dipol)            ewald-force                    non-local-force                 convergence-correction
 -----------------------------------------------------------------------------------------------
   -.228E-13 -.224E-13 -.205E-13   -.529E-15 -.103E-14 -.897E-14   0.775E-25 -.258E-25 -.258E-25   0.748E-14 0.969E-14 -.314E-13
   0.792E-12 0.136E-11 -.579E-11   0.472E-14 0.447E-14 0.926E-14   0.646E-25 -.388E-25 -.517E-25   0.231E-13 -.132E-13 -.245E-13
 -----------------------------------------------------------------------------------------------
   0.769E-12 0.134E-11 -.581E-11   0.419E-14 0.343E-14 0.284E-15   0.142E-24 -.646E-25 -.775E-25   0.306E-13 -.352E-14 -.558E-13
 
 
 POSITION                                       TOTAL-FORCE (eV/Angst)
 -----------------------------------------------------------------------------------
      0.00000      0.00000      0.00000        -0.000000     -0.000000     -0.000000
      1.42003      1.42003      1.42003         0.000000      0.000000      0.000000
 -----------------------------------------------------------------------------------
    total drift:                                0.000000      0.000000     -0.000000


--------------------------------------------------------------------------------------------------------



  FREE ENERGIE OF THE ION-ELECTRON SYSTEM (eV)
  ---------------------------------------------------
  free  energy   TOTEN  =       -16.51374940 eV

  energy  without entropy=      -16.51374940  energy(sigma->0) =      -16.51374940
 


--------------------------------------------------------------------------------------------------------


    POTLOK:  cpu time    0.0105: real time    0.0105


--------------------------------------------------------------------------------------------------------


     LOOP+:  cpu time    7.6453: real time    7.6719
    4ORBIT:  cpu time    0.0000: real time    0.0000
 


 total charge     
 
# of ion       s       p       d       tot
------------------------------------------
    1        0.385   6.378   6.074  12.837
    2        0.385   6.378   6.074  12.837
--------------------------------------------------
tot          0.770  12.755  12.149  25.674
 


 magnetization (x)
 
# of ion       s       p       d       tot
------------------------------------------
    1       -0.008  -0.042   2.292   2.243
    2       -0.008  -0.042   2.292   2.243
--------------------------------------------------
tot         -0.016  -0.083   4.584   4.485
 
 BZINTS: Fermi energy:  9.622733; 28.000000 electrons
         Band energy:-399.259494;  BLOECHL correction: -0.034706

 total amount of memory used by VASP MPI-rank0    32590. kBytes
=======================================================================

   base      :      30000. kBytes
   nonlr-proj:        788. kBytes
   fftplans  :        261. kBytes
   grid      :        623. kBytes
   one-center:         31. kBytes
   wavefun   :        887. kBytes
 
  
  
 General timing and accounting informations for this job:
 ========================================================
  
                  Total CPU time used (sec):        9.095
                            User time (sec):        8.894
                          System time (sec):        0.202
                         Elapsed time (sec):       11.196
  
                   Maximum memory used (kb):       57808.
                   Average memory used (kb):           0.
  
                          Minor page faults:        13509
                          Major page faults:            0
                 Voluntary context switches:         1452
