       N       E                     dE             d eps       ncg     rms          rms(c)
DAV:   1     0.753690474728E+03    0.75369E+03   -0.34609E+04  4360   0.162E+03
DAV:   2     0.205750523241E+02   -0.73312E+03   -0.69207E+03  3936   0.522E+02
DAV:   3    -0.202845613856E+02   -0.40860E+02   -0.39547E+02  4264   0.141E+02
DAV:   4    -0.208689656585E+02   -0.58440E+00   -0.58374E+00  4216   0.172E+01
DAV:   5    -0.208805090431E+02   -0.11543E-01   -0.11543E-01  4312   0.233E+00    0.548E+01
DAV:   6    -0.313633804628E+02   -0.10483E+02   -0.32994E+01  4208   0.680E+01    0.223E+01
DAV:   7    -0.284116770413E+02    0.29517E+01   -0.12072E+01  4160   0.399E+01    0.353E+00
DAV:   8    -0.283280742462E+02    0.83603E-01   -0.19882E-01  4344   0.505E+00    0.131E+00
DAV:   9    -0.283260297382E+02    0.20445E-02   -0.74305E-03  4256   0.509E-01    0.596E-01
DAV:  10    -0.283233281254E+02    0.27016E-02   -0.64820E-04  4672   0.232E-01    0.193E-01
DAV:  11    -0.283231567734E+02    0.17135E-03   -0.41959E-04  4208   0.173E-01    0.834E-02
DAV:  12    -0.283231776191E+02   -0.20846E-04   -0.31709E-05  4208   0.422E-02    0.457E-02
DAV:  13    -0.283231814004E+02   -0.37812E-05   -0.35622E-06  3848   0.179E-02    0.960E-03
DAV:  14    -0.283231812128E+02    0.18759E-06   -0.69642E-07  2472   0.767E-03
   1 F= -.28323181E+02 E0= -.28255219E+02  d E =-.135924E+00  mag=     2.3509
