       N       E                     dE             d eps       ncg     rms          rms(c)
DAV:   1     0.460191617732E+03    0.46019E+03   -0.19090E+04 64692   0.372E+03
DAV:   2     0.535983426931E+02   -0.40659E+03   -0.37972E+03 77272   0.437E+02
DAV:   3    -0.332132953360E+02   -0.86812E+02   -0.84856E+02 90484   0.274E+02
DAV:   4    -0.404921524723E+02   -0.72789E+01   -0.69746E+01 95992   0.686E+01
DAV:   5    -0.411931710925E+02   -0.70102E+00   -0.66938E+00 98568   0.180E+01    0.273E+01
DAV:   6    -0.490840118702E+02   -0.78908E+01   -0.27730E+02 83884   0.173E+02    0.474E+01
DAV:   7    -0.422267848228E+02    0.68572E+01   -0.26855E+02 80552   0.203E+02    0.482E+01
DAV:   8    -0.399796402701E+02    0.22471E+01   -0.98185E+01 93476   0.799E+01    0.203E+01
DAV:   9    -0.414269560535E+02   -0.14473E+01   -0.50928E+00 91632   0.174E+01    0.108E+01
DAV:  10    -0.416931967043E+02   -0.26624E+00   -0.13116E+00 97824   0.935E+00    0.528E+00
DAV:  11    -0.415593294777E+02    0.13387E+00   -0.44211E-01 97504   0.591E+00    0.428E+00
DAV:  12    -0.416309200971E+02   -0.71591E-01   -0.13947E-01 99108   0.296E+00    0.157E+00
DAV:  13    -0.416363513812E+02   -0.54313E-02   -0.88042E-02 88512   0.252E+00    0.148E+00
DAV:  14    -0.416322030715E+02    0.41483E-02   -0.16935E-02 92068   0.112E+00    0.824E-01
DAV:  15    -0.416354611973E+02   -0.32581E-02   -0.40461E-03 92976   0.551E-01    0.471E-01
DAV:  16    -0.416365792014E+02   -0.11180E-02   -0.14424E-03 91160   0.348E-01    0.907E-02
DAV:  17    -0.416367725828E+02   -0.19338E-03   -0.34302E-04100664   0.195E-01    0.462E-02
DAV:  18    -0.416367606125E+02    0.11970E-04   -0.46146E-05 96096   0.725E-02    0.378E-02
DAV:  19    -0.416367707830E+02   -0.10171E-04   -0.37883E-05 95868   0.616E-02    0.270E-02
DAV:  20    -0.416367691500E+02    0.16331E-05   -0.33552E-06 96620   0.170E-02    0.205E-02
DAV:  21    -0.416367726942E+02   -0.35443E-05   -0.97057E-07 80724   0.110E-02    0.133E-02
DAV:  22    -0.416367738655E+02   -0.11713E-05   -0.11610E-06 86216   0.111E-02    0.270E-03
DAV:  23    -0.416367729100E+02    0.95556E-06   -0.10145E-07 40104   0.420E-03    0.944E-04
DAV:  24    -0.416367725679E+02    0.34206E-06   -0.37030E-08 38656   0.328E-03    0.305E-04
DAV:  25    -0.416367723781E+02    0.18984E-06   -0.16768E-08 37936   0.253E-03    0.173E-04
DAV:  26    -0.416367723481E+02    0.29955E-07   -0.94881E-09 37148   0.188E-03
   1 F= -.41636772E+02 E0= -.41636772E+02  d E =0.000000E+00  mag=    -0.0000
