       N       E                     dE             d eps       ncg     rms          rms(c)
DAV:   1     0.969667494724E+02    0.96967E+02   -0.10012E+04  4288   0.211E+03
DAV:   2    -0.135582412288E+02   -0.11052E+03   -0.10323E+03  4256   0.301E+02
DAV:   3    -0.161922325047E+02   -0.26340E+01   -0.25394E+01  4814   0.678E+01
DAV:   4    -0.162274078966E+02   -0.35175E-01   -0.35165E-01  6010   0.611E+00
DAV:   5    -0.162278738160E+02   -0.46592E-03   -0.46467E-03  5026   0.643E-01    0.145E+01
DAV:   6    -0.142636140625E+02    0.19643E+01   -0.16537E+01  4484   0.845E+01    0.796E+00
DAV:   7    -0.139288537856E+02    0.33476E+00   -0.22976E+00  4700   0.301E+01    0.482E+00
DAV:   8    -0.140784112099E+02   -0.14956E+00   -0.15127E-01  5750   0.641E+00    0.217E+00
DAV:   9    -0.140354837029E+02    0.42928E-01   -0.34417E-02  6158   0.282E+00    0.237E+00
DAV:  10    -0.140252399965E+02    0.10244E-01   -0.96014E-04  6062   0.454E-01    0.266E+00
DAV:  11    -0.140699816160E+02   -0.44742E-01   -0.32517E-02  5270   0.305E+00    0.425E-01
DAV:  12    -0.140704292893E+02   -0.44767E-03   -0.97992E-04  6110   0.387E-01    0.155E-01
DAV:  13    -0.140702266049E+02    0.20268E-03   -0.16632E-04  5666   0.212E-01    0.869E-03
DAV:  14    -0.140702140274E+02    0.12578E-04   -0.63011E-06  4832   0.286E-02    0.838E-03
DAV:  15    -0.140702203786E+02   -0.63512E-05   -0.32447E-07  4858   0.743E-03    0.445E-03
DAV:  16    -0.140702283796E+02   -0.80009E-05   -0.18371E-07  3040   0.650E-03    0.502E-04
DAV:  17    -0.140702277089E+02    0.67062E-06   -0.11077E-08  2278   0.140E-03    0.369E-04
DAV:  18    -0.140702286159E+02   -0.90692E-06   -0.29113E-09  2254   0.807E-04    0.667E-05
DAV:  19    -0.140702285803E+02    0.35572E-07   -0.81018E-10  2206   0.306E-04
   1 F= -.14070229E+02 E0= -.14070229E+02  d E =0.000000E+00  mag=     3.1559
