=========================================
SLURM_JOB_ID = 31881298
SLURM_JOB_NODELIST = lnode17
SLURM_GPUS = 
SLURM_CPUS_ON_NODE = 8
SLURM_JOB_PARTITION = lenovo
SLURM_TASK_PID = 4074416
CUDA_VISIBLE_DEVICES = 
==========================================
 running on    8 total cores
 distrk:  each k-point on    8 cores,    1 groups
 distr:  one band on    4 cores,    2 groups
 using from now: INCAR     
 vasp.5.4.4.18Apr17-6-g9f103f2a35 (build Apr 28 2018 00:24:27) complex          
  
 POSCAR found type information on POSCAR  Eu O 
 POSCAR found :  2 types and       4 ions
 scaLAPACK will be used
 LDA part: xc-table for Pade appr. of Perdew
 generate k-points for:    5    3    5
 POSCAR, INCAR and KPOINTS ok, starting setup
 FFT: planning ...
 WAVECAR not read
 entering main loop
       N       E                     dE             d eps       ncg     rms          rms(c)
DAV:   1     0.431312937762E+03    0.43131E+03   -0.18343E+04  3240   0.352E+03
DAV:   2     0.516310395217E+02   -0.37968E+03   -0.35572E+03  3680   0.416E+02
DAV:   3    -0.365342209576E+02   -0.88165E+02   -0.86324E+02  4468   0.259E+02
DAV:   4    -0.441658841110E+02   -0.76317E+01   -0.72834E+01  4732   0.679E+01
DAV:   5    -0.450228247554E+02   -0.85694E+00   -0.79597E+00  4980   0.190E+01    0.268E+01
DAV:   6    -0.854523612328E+02   -0.40430E+02   -0.66648E+02  4416   0.227E+02    0.108E+02
DAV:   7    -0.285773846672E+02    0.56875E+02   -0.47061E+02  4324   0.122E+02    0.264E+01
DAV:   8    -0.408696610851E+02   -0.12292E+02   -0.92598E+01  4152   0.620E+01    0.206E+01
DAV:   9    -0.414554360523E+02   -0.58577E+00   -0.99233E+00  4300   0.235E+01    0.118E+01
DAV:  10    -0.416602903547E+02   -0.20485E+00   -0.18156E+00  5072   0.105E+01    0.785E+00
DAV:  11    -0.416783968299E+02   -0.18106E-01   -0.48610E-01  5048   0.620E+00    0.505E+00
DAV:  12    -0.416213512670E+02    0.57046E-01   -0.91132E-01  4192   0.834E+00    0.179E+00
DAV:  13    -0.416172759841E+02    0.40753E-02   -0.18880E-01  5072   0.397E+00    0.183E+00
DAV:  14    -0.416153052976E+02    0.19707E-02   -0.14351E-02  3656   0.849E-01    0.170E+00
DAV:  15    -0.416054671585E+02    0.98381E-02   -0.35094E-02  4408   0.148E+00    0.139E+00
DAV:  16    -0.416057842975E+02   -0.31714E-03   -0.15023E-02  4372   0.127E+00    0.965E-01
DAV:  17    -0.416065674063E+02   -0.78311E-03   -0.67533E-03  5036   0.666E-01    0.597E-01
DAV:  18    -0.416070083957E+02   -0.44099E-03   -0.13021E-03  4896   0.332E-01    0.363E-01
DAV:  19    -0.416071590924E+02   -0.15070E-03   -0.48763E-04  5056   0.228E-01    0.210E-01
DAV:  20    -0.416071678856E+02   -0.87931E-05   -0.70387E-04  4536   0.281E-01    0.553E-02
DAV:  21    -0.416071690013E+02   -0.11158E-05   -0.71574E-05  4472   0.708E-02    0.259E-02
DAV:  22    -0.416071579144E+02    0.11087E-04   -0.61136E-05  3992   0.601E-02    0.999E-03
DAV:  23    -0.416071581544E+02   -0.23995E-06   -0.80155E-06  3344   0.278E-02
   1 F= -.41607158E+02 E0= -.41610168E+02  d E =0.903095E-02  mag=     0.0000
