=========================================
SLURM_JOB_ID = 37466383
SLURM_JOB_NODELIST = lnode55
SLURM_GPUS = 
SLURM_CPUS_ON_NODE = 8
SLURM_JOB_PARTITION = lenovo
SLURM_TASK_PID = 605527
CUDA_VISIBLE_DEVICES = 
==========================================
 running on    8 total cores
 distrk:  each k-point on    8 cores,    1 groups
 distr:  one band on    4 cores,    2 groups
 using from now: INCAR     
 vasp.5.4.4.18Apr17-6-g9f103f2a35 (build Apr 28 2018 00:24:27) complex          
  
 POSCAR found type information on POSCAR  Eu O 
 POSCAR found :  2 types and       4 ions
 scaLAPACK will be used

 ----------------------------------------------------------------------------- 
|                                                                             |
|  ADVICE TO THIS USER RUNNING 'VASP/VAMP'   (HEAR YOUR MASTER'S VOICE ...):  |
|                                                                             |
|      You have a (more or less) 'small supercell' and for smaller cells      |
|      it is recommended  to use the reciprocal-space projection scheme!      |
|      The real space optimization is not  efficient for small cells and it   |
|      is also less accurate ...                                              |
|      Therefore set LREAL=.FALSE. in the  INCAR file                         |
|                                                                             |
 ----------------------------------------------------------------------------- 

 LDA part: xc-table for Pade appr. of Perdew
 POSCAR, INCAR and KPOINTS ok, starting setup
 FFT: planning ...
 WAVECAR not read
 entering main loop
       N       E                     dE             d eps       ncg     rms          rms(c)
DAV:   1     0.451706210686E+03    0.45171E+03   -0.18426E+04 64524   0.356E+03
DAV:   2     0.509792350470E+02   -0.40073E+03   -0.37511E+03 77528   0.430E+02
DAV:   3    -0.334114352360E+02   -0.84391E+02   -0.82402E+02 90980   0.267E+02
DAV:   4    -0.405141693730E+02   -0.71027E+01   -0.67814E+01 96012   0.673E+01
DAV:   5    -0.411959695394E+02   -0.68180E+00   -0.65066E+00 98368   0.177E+01    0.273E+01
RMM:   6    -0.526151821413E+02   -0.11419E+02   -0.12890E+02 76802   0.116E+02    0.516E+01
RMM:   7    -0.417886590583E+02    0.10827E+02   -0.78174E+01 61568   0.134E+02    0.188E+01
RMM:   8    -0.416381371592E+02    0.15052E+00   -0.13641E+01 69913   0.382E+01    0.582E+00
RMM:   9    -0.416286536983E+02    0.94835E-02   -0.49006E+00 71242   0.219E+01    0.315E+00
RMM:  10    -0.416297888350E+02   -0.11351E-02   -0.52006E-01 76469   0.776E+00    0.249E+00
RMM:  11    -0.416492441776E+02   -0.19455E-01   -0.17897E-01 82300   0.373E+00    0.270E+00
RMM:  12    -0.416296995036E+02    0.19545E-01   -0.70061E-02 81982   0.247E+00    0.123E+00
RMM:  13    -0.416330549629E+02   -0.33555E-02   -0.57527E-02 83481   0.190E+00    0.833E-01
RMM:  14    -0.416340185403E+02   -0.96358E-03   -0.21571E-02 85471   0.117E+00    0.435E-01
RMM:  15    -0.416340970152E+02   -0.78475E-04   -0.10859E-02 77318   0.839E-01    0.305E-01
RMM:  16    -0.416347356917E+02   -0.63868E-03   -0.89221E-03 74069   0.635E-01    0.202E-01
RMM:  17    -0.416351916506E+02   -0.45596E-03   -0.47479E-03 61847   0.484E-01    0.500E-02
RMM:  18    -0.416355457034E+02   -0.35405E-03   -0.36086E-03 56886   0.433E-01    0.487E-02
RMM:  19    -0.416357728780E+02   -0.22717E-03   -0.24033E-03 50453   0.416E-01    0.207E-02
RMM:  20    -0.416359633872E+02   -0.19051E-03   -0.20069E-03 46025   0.394E-01    0.143E-02
RMM:  21    -0.416361145420E+02   -0.15115E-03   -0.15603E-03 44426   0.364E-01    0.897E-03
RMM:  22    -0.416362369360E+02   -0.12239E-03   -0.12666E-03 43286   0.353E-01    0.731E-03
RMM:  23    -0.416363359571E+02   -0.99021E-04   -0.10273E-03 42971   0.335E-01    0.635E-03
RMM:  24    -0.416364169351E+02   -0.80978E-04   -0.84598E-04 42554   0.324E-01
   1 F= -.41636417E+02 E0= -.41636348E+02  d E =-.416364E+02  mag=    -0.0001
 curvature:   0.00 expect dE= 0.000E+00 dE for cont linesearch  0.000E+00
 trial: gam= 0.00000 g(F)=  0.664E-57 g(S)=  0.665E-03 ort = 0.000E+00 (trialstep = 0.100E+01)
 search vector abs. value=  0.665E-03
 bond charge predicted
       N       E                     dE             d eps       ncg     rms          rms(c)
DAV:   1    -0.416383357256E+02   -0.19998E-02   -0.92609E-02 61484   0.905E+00    0.273E-01
RMM:   2    -0.416378419969E+02    0.49373E-03   -0.13200E-02 73170   0.137E+00    0.155E-01
RMM:   3    -0.416372596701E+02    0.58233E-03   -0.33856E-03 69212   0.677E-01    0.114E-01
RMM:   4    -0.416377616543E+02   -0.50198E-03   -0.10673E-03 53051   0.540E-01    0.355E-01
RMM:   5    -0.416372538255E+02    0.50783E-03   -0.48928E-04 45361   0.399E-01    0.360E-02
RMM:   6    -0.416372734377E+02   -0.19612E-04   -0.18027E-04 36284   0.294E-01
   2 F= -.41637273E+02 E0= -.41637205E+02  d E =-.856503E-03  mag=    -0.0003
 ZBRENT: can't locate minimum, use default step
 trial-energy change:   -0.000857  1 .order   -0.000669   -0.000665   -0.000674
 step:   4.0000(harm=  4.0000)  dis= 0.00000  next Energy=   -41.639151 (dE=-0.273E-02)
 bond charge predicted
       N       E                     dE             d eps       ncg     rms          rms(c)
DAV:   1    -0.416480990807E+02   -0.10845E-01   -0.84016E-01 61720   0.270E+01    0.838E-01
RMM:   2    -0.416422298817E+02    0.58692E-02   -0.10974E-01 71579   0.411E+00    0.471E-01
RMM:   3    -0.416372737355E+02    0.49561E-02   -0.26594E-02 78228   0.170E+00    0.307E-01
RMM:   4    -0.416387169929E+02   -0.14433E-02   -0.64796E-03 68316   0.122E+00    0.686E-01
RMM:   5    -0.416370291390E+02    0.16879E-02   -0.25672E-03 60881   0.748E-01    0.125E-01
RMM:   6    -0.416370573723E+02   -0.28233E-04   -0.46051E-04 40442   0.388E-01
   3 F= -.41637057E+02 E0= -.41636991E+02  d E =-.640437E-03  mag=     0.0001
 curvature:  -3.02 expect dE=-0.142E-06 dE for cont linesearch -0.100E-06
 trial: gam= 0.00000 g(F)=  0.116E-57 g(S)=  0.471E-07 ort =-0.469E-05 (trialstep = 0.160E+01)
 search vector abs. value=  0.472E-07
 reached required accuracy - stopping structural energy minimisation
