=========================================
SLURM_JOB_ID = 30234762
SLURM_JOB_NODELIST = lnode18
SLURM_GPUS = 
SLURM_CPUS_ON_NODE = 8
SLURM_JOB_PARTITION = lenovo
SLURM_TASK_PID = 3069625
CUDA_VISIBLE_DEVICES = 
==========================================
 running on    8 total cores
 distrk:  each k-point on    8 cores,    1 groups
 distr:  one band on    4 cores,    2 groups
 using from now: INCAR     
 vasp.5.4.4.18Apr17-6-g9f103f2a35 (build Apr 28 2018 00:24:27) complex          
  
 POSCAR found type information on POSCAR  Eu O 
 POSCAR found :  2 types and       4 ions
 scaLAPACK will be used
 LDA part: xc-table for Pade appr. of Perdew
 POSCAR, INCAR and KPOINTS ok, starting setup
 FFT: planning ...
 WAVECAR not read
 entering main loop
       N       E                     dE             d eps       ncg     rms          rms(c)
DAV:   1     0.437557890774E+03    0.43756E+03   -0.18337E+04  4240   0.350E+03
DAV:   2     0.546660241156E+02   -0.38289E+03   -0.36005E+03  4832   0.419E+02
DAV:   3    -0.364178574111E+02   -0.91084E+02   -0.89136E+02  6068   0.261E+02
DAV:   4    -0.441526384430E+02   -0.77348E+01   -0.73390E+01  6204   0.686E+01
DAV:   5    -0.450133358583E+02   -0.86070E+00   -0.81126E+00  6604   0.194E+01    0.268E+01
DAV:   6    -0.859550148471E+02   -0.40942E+02   -0.66686E+02  5932   0.227E+02    0.108E+02
DAV:   7    -0.269935086889E+02    0.58962E+02   -0.45924E+02  5564   0.122E+02    0.245E+01
DAV:   8    -0.409769405713E+02   -0.13983E+02   -0.10661E+02  5720   0.628E+01    0.216E+01
DAV:   9    -0.414566326083E+02   -0.47969E+00   -0.11003E+01  5724   0.229E+01    0.131E+01
DAV:  10    -0.415879375226E+02   -0.13130E+00   -0.21628E+00  6472   0.113E+01    0.872E+00
DAV:  11    -0.417328507065E+02   -0.14491E+00   -0.48941E-01  6808   0.521E+00    0.590E+00
DAV:  12    -0.416877165068E+02    0.45134E-01   -0.13735E+00  6384   0.977E+00    0.253E+00
DAV:  13    -0.416256902389E+02    0.62026E-01   -0.32205E-01  6308   0.451E+00    0.180E+00
DAV:  14    -0.416177789100E+02    0.79113E-02   -0.44620E-02  5944   0.145E+00    0.156E+00
DAV:  15    -0.416122988601E+02    0.54800E-02   -0.18627E-02  6428   0.102E+00    0.116E+00
DAV:  16    -0.416118308121E+02    0.46805E-03   -0.16059E-02  6844   0.116E+00    0.703E-01
DAV:  17    -0.416118638629E+02   -0.33051E-04   -0.34909E-03  6512   0.475E-01    0.458E-01
DAV:  18    -0.416119536768E+02   -0.89814E-04   -0.17669E-03  5784   0.357E-01    0.292E-01
DAV:  19    -0.416120435983E+02   -0.89921E-04   -0.37974E-04  7128   0.154E-01    0.176E-01
DAV:  20    -0.416120516893E+02   -0.80910E-05   -0.75276E-04  5784   0.249E-01    0.426E-02
DAV:  21    -0.416120503747E+02    0.13146E-05   -0.79114E-05  6984   0.652E-02    0.616E-02
DAV:  22    -0.416120466854E+02    0.36893E-05   -0.43802E-05  5976   0.473E-02    0.299E-02
DAV:  23    -0.416120501777E+02   -0.34923E-05   -0.14761E-05  5920   0.250E-02    0.106E-02
DAV:  24    -0.416120499690E+02    0.20870E-06   -0.88814E-07  2560   0.124E-02
   1 F= -.41612050E+02 E0= -.41617216E+02  d E =0.154969E-01  mag=     0.0000
