 vasp.5.4.4.18Apr17-6-g9f103f2a35 (build Apr 28 2018 00:24:27) complex          
  
 executed on             LinuxIFC date 2021.03.23  16:56:30
 running on    8 total cores
 distrk:  each k-point on    8 cores,    1 groups
 distr:  one band on NCORES_PER_BAND=   4 cores,    2 groups


--------------------------------------------------------------------------------------------------------


 INCAR:
 POTCAR:    PAW_PBE Eu 23Dec2003                  
 POTCAR:    PAW_PBE O 08Apr2002                   
 POTCAR:    PAW_PBE Eu 23Dec2003                  
   SHA256 =  ed303d27e7c5191953f9b15539336e6f36d9037c1d2e92e80c13d733697cb93d Eu
   COPYR  = (c) Copyright 23Dec2003 Georg Kresse                                
   COPYR  = This file is part of the software VASP. Any use, copying, and all ot
   COPYR  = If you do not have a valid VASP license, you may not use, copy or di
   VRHFIN =Eu : [core=Kr4d]                                                     
   LEXCH  = PE                                                                  
   EATOM  =  2619.8085 eV,  192.5505 Ry                                         
                                                                                
   TITEL  = PAW_PBE Eu 23Dec2003                                                
   LULTRA =        F    use ultrasoft PP ?                                      
   IUNSCR =        1    unscreen: 0-lin 1-nonlin 2-no                           
   RPACOR =    2.300    partial core radius                                     
   POMASS =  151.965; ZVAL   =   17.000    mass and valenz                      
   RCORE  =    2.800    outmost cutoff radius                                   
   RWIGS  =    2.800; RWIGS  =    1.482    wigner-seitz radius (au A)           
   ENMAX  =  249.668; ENMIN  =  187.251 eV                                      
   RCLOC  =    2.308    cutoff for local pot                                    
   LCOR   =        T    correct aug charges                                     
   LPAW   =        T    paw PP                                                  
   EAUG   =  549.628                                                            
   DEXC   =    0.000                                                            
   RMAX   =    2.870    core radius for proj-oper                               
   RAUG   =    1.300    factor for augmentation sphere                          
   RDEP   =    2.887    radius for radial grids                                 
   RDEPT  =    2.221    core radius for aug-charge                              
                                                                                
   Atomic configuration                                                         
   14 entries                                                                   
     n  l   j            E        occ.                                          
     1  0  0.50    -48354.7667   2.0000                                         
     2  0  0.50     -7939.6472   2.0000                                         
     2  1  1.50     -7072.6637   6.0000                                         
     3  0  0.50     -1747.1875   2.0000                                         
     3  1  1.50     -1477.5221   6.0000                                         
     3  2  2.50     -1117.4686  10.0000                                         
     4  0  0.50      -346.8682   2.0000                                         
     4  1  1.50      -258.1962   6.0000                                         
     4  2  2.50      -134.7724  10.0000                                         
     5  0  0.50       -44.6510   2.0000                                         
     6  0  0.50        -3.6227   2.0000                                         
     5  1  1.50       -23.7639   6.0000                                         
     5  2  2.50        -1.3130   0.0000                                         
     4  3  2.50        -2.7310   7.0000                                         
   Description                                                                  
     l       E           TYP  RCUT    TYP  RCUT                                 
     0    -44.6510453     23  2.400                                             
     0     -3.6226685     23  2.400                                             
     1    -23.7638687     23  2.400                                             
     1     27.2116520     23  2.400                                             
     2     -1.3129622     23  2.500                                             
     2     13.6058260     23  2.500                                             
     3     -2.7309948     23  2.800                                             
     3     -3.4014565     23  2.800                                             
  local pseudopotential read in
  partial core-charges read in
  partial kinetic energy density read in
  atomic valenz-charges read in
  non local Contribution for L=           0  read in
    real space projection operators read in
  non local Contribution for L=           0  read in
    real space projection operators read in
  non local Contribution for L=           1  read in
    real space projection operators read in
  non local Contribution for L=           1  read in
    real space projection operators read in
  non local Contribution for L=           2  read in
    real space projection operators read in
  non local Contribution for L=           2  read in
    real space projection operators read in
  non local Contribution for L=           3  read in
    real space projection operators read in
  non local Contribution for L=           3  read in
    real space projection operators read in
    PAW grid and wavefunctions read in
 
   number of l-projection  operators is LMAX  =           8
   number of lm-projection operators is LMMAX =          32
 
 POTCAR:    PAW_PBE O 08Apr2002                   
   SHA256 =  818f92134a0a090dccd8ba1447fa70422a3b330e708bb4f08108d8ae51209ddf O/
   COPYR  = (c) Copyright 08Apr2002 Georg Kresse                                
   COPYR  = This file is part of the software VASP. Any use, copying, and all ot
   COPYR  = If you do not have a valid VASP license, you may not use, copy or di
   VRHFIN =O: s2p4                                                              
   LEXCH  = PE                                                                  
   EATOM  =   432.3788 eV,   31.7789 Ry                                         
                                                                                
   TITEL  = PAW_PBE O 08Apr2002                                                 
   LULTRA =        F    use ultrasoft PP ?                                      
   IUNSCR =        1    unscreen: 0-lin 1-nonlin 2-no                           
   RPACOR =    1.200    partial core radius                                     
   POMASS =   16.000; ZVAL   =    6.000    mass and valenz                      
   RCORE  =    1.520    outmost cutoff radius                                   
   RWIGS  =    1.550; RWIGS  =    0.820    wigner-seitz radius (au A)           
   ENMAX  =  400.000; ENMIN  =  300.000 eV                                      
   ICORE  =        2    local potential                                         
   LCOR   =        T    correct aug charges                                     
   LPAW   =        T    paw PP                                                  
   EAUG   =  605.392                                                            
   DEXC   =    0.000                                                            
   RMAX   =    1.553    core radius for proj-oper                               
   RAUG   =    1.300    factor for augmentation sphere                          
   RDEP   =    1.550    radius for radial grids                                 
   RDEPT  =    1.329    core radius for aug-charge                              
                                                                                
   Atomic configuration                                                         
    4 entries                                                                   
     n  l   j            E        occ.                                          
     1  0  0.50      -514.6923   2.0000                                         
     2  0  0.50       -23.9615   2.0000                                         
     2  1  0.50        -9.0305   4.0000                                         
     3  2  1.50        -9.5241   0.0000                                         
   Description                                                                  
     l       E           TYP  RCUT    TYP  RCUT                                 
     0    -23.9615318     23  1.200                                             
     0     -9.5240782     23  1.200                                             
     1     -9.0304911     23  1.520                                             
     1      8.1634956     23  1.520                                             
     2     -9.5240782      7  1.500                                             
  local pseudopotential read in
  partial core-charges read in
  partial kinetic energy density read in
  kinetic energy density of atom read in
  atomic valenz-charges read in
  non local Contribution for L=           0  read in
    real space projection operators read in
  non local Contribution for L=           0  read in
    real space projection operators read in
  non local Contribution for L=           1  read in
    real space projection operators read in
  non local Contribution for L=           1  read in
    real space projection operators read in
    PAW grid and wavefunctions read in
 
   number of l-projection  operators is LMAX  =           4
   number of lm-projection operators is LMMAX =           8
 
  PAW_PBE Eu 23Dec2003                  :
 energy of atom  1       EATOM=-2619.8085
 kinetic energy error for atom=    0.0019 (will be added to EATOM!!)
  PAW_PBE O 08Apr2002                   :
 energy of atom  2       EATOM= -432.3788
 kinetic energy error for atom=    0.0224 (will be added to EATOM!!)
 
 
 POSCAR: Eu1 O1 str #: 5                         
  positions in direct lattice
  No initial velocities read in
 exchange correlation table for  LEXCH =        8
   RHO(1)=    0.500       N(1)  =     2000
   RHO(2)=  100.500       N(2)  =     4000
 


--------------------------------------------------------------------------------------------------------


 ion  position               nearest neighbor table
   1  0.000  0.000  0.000-   3 2.54   4 2.54   4 2.54   3 2.54   3 2.54   4 2.54
   2  0.500  0.500  0.000-   4 2.54   3 2.54   3 2.54   4 2.54   4 2.54   3 2.54
   3  0.750  0.250  0.500-   1 2.54   2 2.54   2 2.54   1 2.54   1 2.54   2 2.54
   4  0.250  0.750  0.500-   2 2.54   1 2.54   1 2.54   2 2.54   2 2.54   1 2.54
 
  LATTYP: Found a base centered monoclinic cell.
 ALAT       =     6.2226840220
 B/A-ratio  =     0.5773350008
 C/A-ratio  =     1.1546911194
 COS(beta)  =    -0.5000183251
  
  Lattice vectors:
  
 A1 = (   3.5926456000,   0.0000000000,   0.0000000000)
 A2 = (   1.7963930000,   1.0371167000,   2.9333340000)
 A3 = (  -3.5927690000,  -6.2225582000,   0.0000000000)


Analysis of symmetry for initial positions (statically):
=====================================================================
 Subroutine PRICEL returns following result:
 
  LATTYP: Found a trigonal (rhomboedric) cell.
 ALAT       =     3.5926434857
 COS(alpha) =     0.5000183251
  
  Lattice vectors:
  
 A1 = (  -1.7963930000,  -1.0371167000,  -2.9333340000)
 A2 = (  -1.7963845000,  -3.1112791000,   0.0000000000)
 A3 = (  -3.5926456000,   0.0000000000,   0.0000000000)
 
   2 primitive cells build up your supercell.
 

 Routine SETGRP: Setting up the symmetry group for a 
 base centered monoclinic supercell.


 Subroutine GETGRP returns: Found  4 space group operations
 (whereof  4 operations were pure point group operations)
 out of a pool of  4 trial point group operations.


The static configuration has the point symmetry C_2h.


Analysis of symmetry for dynamics (positions and initial velocities):
=====================================================================
 Subroutine PRICEL returns following result:
 
  LATTYP: Found a trigonal (rhomboedric) cell.
 ALAT       =     3.5926434857
 COS(alpha) =     0.5000183251
  
  Lattice vectors:
  
 A1 = (  -1.7963930000,  -1.0371167000,  -2.9333340000)
 A2 = (  -1.7963845000,  -3.1112791000,   0.0000000000)
 A3 = (  -3.5926456000,   0.0000000000,   0.0000000000)
 
   2 primitive cells build up your supercell.
 

 Routine SETGRP: Setting up the symmetry group for a 
 base centered monoclinic supercell.


 Subroutine GETGRP returns: Found  4 space group operations
 (whereof  4 operations were pure point group operations)
 out of a pool of  4 trial point group operations.


The dynamic configuration has the point symmetry C_2h.


Analysis of structural, dynamic, and magnetic symmetry:
=====================================================================
 Subroutine PRICEL returns following result:
 
  LATTYP: Found a trigonal (rhomboedric) cell.
 ALAT       =     3.5926434857
 COS(alpha) =     0.5000183251
  
  Lattice vectors:
  
 A1 = (  -1.7963930000,  -1.0371167000,  -2.9333340000)
 A2 = (  -1.7963845000,  -3.1112791000,   0.0000000000)
 A3 = (  -3.5926456000,   0.0000000000,   0.0000000000)
 
   2 primitive cells build up your supercell.
 

 Routine SETGRP: Setting up the symmetry group for a 
 base centered monoclinic supercell.


 Subroutine GETGRP returns: Found  4 space group operations
 (whereof  4 operations were pure point group operations)
 out of a pool of  4 trial point group operations.


The magnetic configuration has the point symmetry C_2h.


 Subroutine INISYM returns: Found  4 space group operations
 (whereof  4 operations are pure point group operations),
 and found     2 'primitive' translations

 
 
 KPOINTS: pymatgen v2020.8.13 with grid density = 

Automatic generation of k-mesh.
Space group operators:
 irot       det(A)        alpha          n_x          n_y          n_z        tau_x        tau_y        tau_z
    1     1.000000     0.000000     1.000000     0.000000     0.000000     0.000000     0.000000     0.000000
    2    -1.000000     0.000000     1.000000     0.000000     0.000000     0.000000     0.000000     0.000000
    3     1.000000   179.999999    -0.499990     0.288683     0.816500     0.000000     0.000000     0.000000
    4    -1.000000   179.999999    -0.499990     0.288683     0.816500     0.000000     0.000000     0.000000
 
 Subroutine IBZKPT returns following result:
 ===========================================
 
 Found     32 irreducible k-points:
 
 Following reciprocal coordinates:
            Coordinates               Weight
  0.125000  0.125000  0.125000      8.000000
  0.375000  0.125000  0.125000      8.000000
 -0.375000  0.125000  0.125000      8.000000
 -0.125000  0.125000  0.125000      8.000000
  0.125000  0.375000  0.125000      8.000000
  0.375000  0.375000  0.125000      8.000000
 -0.375000  0.375000  0.125000      8.000000
 -0.125000  0.375000  0.125000      8.000000
  0.125000 -0.375000  0.125000      8.000000
  0.375000 -0.375000  0.125000      8.000000
 -0.375000 -0.375000  0.125000      8.000000
 -0.125000 -0.375000  0.125000      8.000000
  0.125000 -0.125000  0.125000      8.000000
  0.375000 -0.125000  0.125000      8.000000
 -0.375000 -0.125000  0.125000      8.000000
 -0.125000 -0.125000  0.125000      8.000000
  0.125000  0.125000  0.375000      8.000000
  0.375000  0.125000  0.375000      8.000000
 -0.375000  0.125000  0.375000      8.000000
 -0.125000  0.125000  0.375000      8.000000
  0.125000  0.375000  0.375000      8.000000
  0.375000  0.375000  0.375000      8.000000
 -0.375000  0.375000  0.375000      8.000000
 -0.125000  0.375000  0.375000      8.000000
  0.125000 -0.375000  0.375000      8.000000
  0.375000 -0.375000  0.375000      8.000000
 -0.375000 -0.375000  0.375000      8.000000
 -0.125000 -0.375000  0.375000      8.000000
  0.125000 -0.125000  0.375000      8.000000
  0.375000 -0.125000  0.375000      8.000000
 -0.375000 -0.125000  0.375000      8.000000
 -0.125000 -0.125000  0.375000      8.000000
 
 Following cartesian coordinates:
            Coordinates               Weight
  0.069587  0.040175 -0.014206      8.000000
  0.139173  0.040174 -0.056821      8.000000
 -0.069587  0.040178  0.071024      8.000000
  0.000000  0.040176  0.028409      8.000000
  0.069587  0.080351 -0.028411      8.000000
  0.139173  0.080350 -0.071026      8.000000
 -0.069587  0.080354  0.056819      8.000000
  0.000000  0.080353  0.014204      8.000000
  0.069587 -0.040178  0.014204      8.000000
  0.139173 -0.040179 -0.028411      8.000000
 -0.069587 -0.040175  0.099433      8.000000
  0.000000 -0.040176  0.056818      8.000000
  0.069587 -0.000001 -0.000001      8.000000
  0.139173 -0.000003 -0.042616      8.000000
 -0.069587  0.000001  0.085228      8.000000
  0.000000 -0.000000  0.042614      8.000000
  0.139173  0.080350  0.014202      8.000000
  0.208760  0.080349 -0.028413      8.000000
  0.000000  0.080353  0.099431      8.000000
  0.069587  0.080351  0.056816      8.000000
  0.139173  0.120526 -0.000003      8.000000
  0.208760  0.120525 -0.042618      8.000000
  0.000000  0.120529  0.085226      8.000000
  0.069587  0.120528  0.042611      8.000000
  0.139173 -0.000003  0.042611      8.000000
  0.208760 -0.000004 -0.000004      8.000000
  0.000000 -0.000000  0.127841      8.000000
  0.069587 -0.000001  0.085226      8.000000
  0.139173  0.040174  0.028406      8.000000
  0.208760  0.040172 -0.014208      8.000000
  0.000000  0.040176  0.113636      8.000000
  0.069587  0.040175  0.071021      8.000000
 


--------------------------------------------------------------------------------------------------------




 Dimension of arrays:
   k-points           NKPTS =     32   k-points in BZ     NKDIM =     32   number of bands    NBANDS=     28
   number of dos      NEDOS =    301   number of ions     NIONS =      4
   non local maximal  LDIM  =      8   non local SUM 2l+1 LMDIM =     32
   total plane-waves  NPLWV =  14400
   max r-space proj   IRMAX =      1   max aug-charges    IRDMAX=  12752
   dimension x,y,z NGX =    20 NGY =   36 NGZ =   20
   dimension x,y,z NGXF=    40 NGYF=   72 NGZF=   40
   support grid    NGXF=    40 NGYF=   72 NGZF=   40
   ions per type =               2   2
   NGX,Y,Z   is equivalent  to a cutoff of   9.25,  9.62,  9.25 a.u.
   NGXF,Y,Z  is equivalent  to a cutoff of  18.51, 19.24, 18.51 a.u.

 SYSTEM =  "EuO"                                   
 POSCAR =  Eu1 O1 str #: 5                         

 Startparameter for this run:
   NWRITE =      2    write-flag & timer
   PREC   = normal    normal or accurate (medium, high low for compatibility)
   ISTART =      0    job   : 0-new  1-cont  2-samecut
   ICHARG =      2    charge: 1-file 2-atom 10-const
   ISPIN  =      2    spin polarized calculation?
   LNONCOLLINEAR =      F non collinear calculations
   LSORBIT =      F    spin-orbit coupling
   INIWAV =      1    electr: 0-lowe 1-rand  2-diag
   LASPH  =      F    aspherical Exc in radial PAW
   METAGGA=      F    non-selfconsistent MetaGGA calc.

 Electronic Relaxation 1
   ENCUT  =  500.0 eV  36.75 Ry    6.06 a.u.   6.55 11.35  6.55*2*pi/ulx,y,z
   ENINI  =  500.0     initial cutoff
   ENAUG  =  605.4 eV  augmentation charge cutoff
   NELM   =     60;   NELMIN=  2; NELMDL= -5     # of ELM steps 
   EDIFF  = 0.1E-05   stopping-criterion for ELM
   LREAL  =      F    real-space projection
   NLSPLINE    = F    spline interpolate recip. space projectors
   LCOMPAT=      F    compatible to vasp.4.4
   GGA_COMPAT  = T    GGA compatible to vasp.4.4-vasp.4.6
   LMAXPAW     = -100 max onsite density
   LMAXMIX     =    2 max onsite mixed and CHGCAR
   VOSKOWN=      0    Vosko Wilk Nusair interpolation
   ROPT   =    0.00000   0.00000
 Ionic relaxation
   EDIFFG = 0.1E-04   stopping-criterion for IOM
   NSW    =      0    number of steps for IOM
   NBLOCK =      1;   KBLOCK =      1    inner block; outer block 
   IBRION =     -1    ionic relax: 0-MD 1-quasi-New 2-CG
   NFREE  =      1    steps in history (QN), initial steepest desc. (CG)
   ISIF   =      2    stress and relaxation
   IWAVPR =     10    prediction:  0-non 1-charg 2-wave 3-comb
   ISYM   =      2    0-nonsym 1-usesym 2-fastsym
   LCORR  =      T    Harris-Foulkes like correction to forces

   POTIM  = 0.5000    time-step for ionic-motion
   TEIN   =    0.0    initial temperature
   TEBEG  =    0.0;   TEEND  =   0.0 temperature during run
   SMASS  =  -3.00    Nose mass-parameter (am)
   estimated Nose-frequenzy (Omega)   =  0.10E-29 period in steps =****** mass=  -0.295E-27a.u.
   SCALEE = 1.0000    scale energy and forces
   NPACO  =    256;   APACO  = 16.0  distance and # of slots for P.C.
   PSTRESS=    0.0 pullay stress

  Mass of Ions in am
   POMASS = 151.97 16.00
  Ionic Valenz
   ZVAL   =  17.00  6.00
  Atomic Wigner-Seitz radii
   RWIGS  =  -1.00 -1.00
  virtual crystal weights 
   VCA    =   1.00  1.00
   NELECT =      46.0000    total number of electrons
   NUPDOWN=      -1.0000    fix difference up-down

 DOS related values:
   EMIN   =  10.00;   EMAX   =-10.00  energy-range for DOS
   EFERMI =   0.00
   ISMEAR =     1;   SIGMA  =   0.10  broadening in eV -4-tet -1-fermi 0-gaus

 Electronic relaxation 2 (details)
   IALGO  =     38    algorithm
   LDIAG  =      T    sub-space diagonalisation (order eigenvalues)
   LSUBROT=      F    optimize rotation matrix (better conditioning)
   TURBO    =      0    0=normal 1=particle mesh
   IRESTART =      0    0=no restart 2=restart with 2 vectors
   NREBOOT  =      0    no. of reboots
   NMIN     =      0    reboot dimension
   EREF     =   0.00    reference energy to select bands
   IMIX   =      4    mixing-type and parameters
     AMIX     =   0.40;   BMIX     =  1.00
     AMIX_MAG =   1.60;   BMIX_MAG =  1.00
     AMIN     =   0.10
     WC   =   100.;   INIMIX=   1;  MIXPRE=   1;  MAXMIX= -45

 Intra band minimization:
   WEIMIN = 0.0000     energy-eigenvalue tresh-hold
   EBREAK =  0.89E-08  absolut break condition
   DEPER  =   0.30     relativ break condition  

   TIME   =   0.40     timestep for ELM

  volume/ion in A,a.u.               =      16.39       110.63
  Fermi-wavevector in a.u.,A,eV,Ry     =   1.454607  2.748810 28.788335  2.115883
  Thomas-Fermi vector in A             =   2.571738
 
 Write flags
   LWAVE        =      F    write WAVECAR
   LDOWNSAMPLE  =      F    k-point downsampling of WAVECAR
   LCHARG       =      F    write CHGCAR
   LVTOT        =      F    write LOCPOT, total local potential
   LVHAR        =      F    write LOCPOT, Hartree potential only
   LELF         =      F    write electronic localiz. function (ELF)
   LORBIT       =     11    0 simple, 1 ext, 2 COOP (PROOUT), +10 PAW based schemes


 Dipole corrections
   LMONO  =      F    monopole corrections only (constant potential shift)
   LDIPOL =      F    correct potential (dipole corrections)
   IDIPOL =      0    1-x, 2-y, 3-z, 4-all directions 
   EPSILON=  1.0000000 bulk dielectric constant

 Exchange correlation treatment:
   GGA     =    --    GGA type
   LEXCH   =     8    internal setting for exchange type
   VOSKOWN=      0    Vosko Wilk Nusair interpolation
   LHFCALC =     F    Hartree Fock is set to
   LHFONE  =     F    Hartree Fock one center treatment
   AEXX    =    0.0000 exact exchange contribution

 Linear response parameters
   LEPSILON=     F    determine dielectric tensor
   LRPA    =     F    only Hartree local field effects (RPA)
   LNABLA  =     F    use nabla operator in PAW spheres
   LVEL    =     F    velocity operator in full k-point grid
   LINTERFAST=   F  fast interpolation
   KINTER  =     0    interpolate to denser k-point grid
   CSHIFT  =0.1000    complex shift for real part using Kramers Kronig
   OMEGAMAX=  -1.0    maximum frequency
   DEG_THRESHOLD= 0.2000000E-02 threshold for treating states as degnerate
   RTIME   =   -0.100 relaxation time in fs
  (WPLASMAI=    0.000 imaginary part of plasma frequency in eV, 0.658/RTIME)
   DFIELD  = 0.0000000 0.0000000 0.0000000 field for delta impulse in time
 
 Orbital magnetization related:
   ORBITALMAG=     F  switch on orbital magnetization
   LCHIMAG   =     F  perturbation theory with respect to B field
   DQ        =  0.001000  dq finite difference perturbation B field
   LLRAUG    =     F  two centre corrections for induced B field



--------------------------------------------------------------------------------------------------------


 Static calculation
 charge density and potential will be updated during run
 spin polarized calculation
 Variant of blocked Davidson
 Davidson routine will perform the subspace rotation
 perform sub-space diagonalisation
    after iterative eigenvector-optimisation
 modified Broyden-mixing scheme, WC =      100.0
 initial mixing is a Kerker type mixing with AMIX =  0.4000 and BMIX =      1.0000
 Hartree-type preconditioning will be used
 using additional bands            5
 reciprocal scheme for non local part
 use partial core corrections
 calculate Harris-corrections to forces 
   (improved forces if not selfconsistent)
 use gradient corrections 
 use of overlap-Matrix (Vanderbilt PP)
 Methfessel and Paxton  Order N= 1 SIGMA  =   0.10


--------------------------------------------------------------------------------------------------------


  energy-cutoff  :      500.00
  volume of cell :       65.58
      direct lattice vectors                 reciprocal lattice vectors
     1.796252600 -1.037116700 -2.933334000     0.278346409 -0.000005520 -0.170459216
    -1.796269600  5.185441500 -2.933334000     0.000000000  0.160705608 -0.056819466
     1.796393000  1.037116700  2.933334000     0.278346409  0.160700088  0.113630332

  length of vectors
     3.592573285  6.222526527  3.592643486     0.326394037  0.170454522  0.340900416


 
 k-points in units of 2pi/SCALE and weight: pymatgen v2020.8.13 with grid density = 
   0.06958660  0.04017502 -0.01420604       0.031
   0.13917320  0.04017364 -0.05682085       0.031
  -0.06958660  0.04017778  0.07102356       0.031
   0.00000000  0.04017640  0.02840876       0.031
   0.06958660  0.08035142 -0.02841091       0.031
   0.13917320  0.08035004 -0.07102571       0.031
  -0.06958660  0.08035418  0.05681870       0.031
   0.00000000  0.08035280  0.01420389       0.031
   0.06958660 -0.04017778  0.01420369       0.031
   0.13917320 -0.04017916 -0.02841112       0.031
  -0.06958660 -0.04017502  0.09943330       0.031
   0.00000000 -0.04017640  0.05681849       0.031
   0.06958660 -0.00000138 -0.00000118       0.031
   0.13917320 -0.00000276 -0.04261598       0.031
  -0.06958660  0.00000138  0.08522843       0.031
   0.00000000 -0.00000000  0.04261363       0.031
   0.13917320  0.08035004  0.01420154       0.031
   0.20875981  0.08034866 -0.02841327       0.031
   0.00000000  0.08035280  0.09943115       0.031
   0.06958660  0.08035142  0.05681634       0.031
   0.13917320  0.12052645 -0.00000333       0.031
   0.20875981  0.12052507 -0.04261813       0.031
   0.00000000  0.12052921  0.08522628       0.031
   0.06958660  0.12052783  0.04261148       0.031
   0.13917320 -0.00000276  0.04261127       0.031
   0.20875981 -0.00000414 -0.00000353       0.031
   0.00000000 -0.00000000  0.12784088       0.031
   0.06958660 -0.00000138  0.08522608       0.031
   0.13917320  0.04017364  0.02840641       0.031
   0.20875981  0.04017226 -0.01420840       0.031
   0.00000000  0.04017640  0.11363601       0.031
   0.06958660  0.04017502  0.07102121       0.031
 
 k-points in reciprocal lattice and weights: pymatgen v2020.8.13 with grid density = 
   0.12500000  0.12500000  0.12500000       0.031
   0.37500000  0.12500000  0.12500000       0.031
  -0.37500000  0.12500000  0.12500000       0.031
  -0.12500000  0.12500000  0.12500000       0.031
   0.12500000  0.37500000  0.12500000       0.031
   0.37500000  0.37500000  0.12500000       0.031
  -0.37500000  0.37500000  0.12500000       0.031
  -0.12500000  0.37500000  0.12500000       0.031
   0.12500000 -0.37500000  0.12500000       0.031
   0.37500000 -0.37500000  0.12500000       0.031
  -0.37500000 -0.37500000  0.12500000       0.031
  -0.12500000 -0.37500000  0.12500000       0.031
   0.12500000 -0.12500000  0.12500000       0.031
   0.37500000 -0.12500000  0.12500000       0.031
  -0.37500000 -0.12500000  0.12500000       0.031
  -0.12500000 -0.12500000  0.12500000       0.031
   0.12500000  0.12500000  0.37500000       0.031
   0.37500000  0.12500000  0.37500000       0.031
  -0.37500000  0.12500000  0.37500000       0.031
  -0.12500000  0.12500000  0.37500000       0.031
   0.12500000  0.37500000  0.37500000       0.031
   0.37500000  0.37500000  0.37500000       0.031
  -0.37500000  0.37500000  0.37500000       0.031
  -0.12500000  0.37500000  0.37500000       0.031
   0.12500000 -0.37500000  0.37500000       0.031
   0.37500000 -0.37500000  0.37500000       0.031
  -0.37500000 -0.37500000  0.37500000       0.031
  -0.12500000 -0.37500000  0.37500000       0.031
   0.12500000 -0.12500000  0.37500000       0.031
   0.37500000 -0.12500000  0.37500000       0.031
  -0.37500000 -0.12500000  0.37500000       0.031
  -0.12500000 -0.12500000  0.37500000       0.031
 
 position of ions in fractional coordinates (direct lattice) 
   0.00000000  0.00000000  0.00000000
   0.50000000  0.50000000  0.00000000
   0.75000002  0.24999998  0.50000004
   0.25000002  0.74999998  0.50000004
 
 position of ions in cartesian coordinates  (Angst):
   0.00000000  0.00000000  0.00000000
  -0.00000850  2.07416240 -2.93333400
   1.79631870  1.03708110 -1.46666690
   0.00005760  4.14836020 -1.46666690
 


--------------------------------------------------------------------------------------------------------


 k-point  1 :   0.1250 0.1250 0.1250  plane waves:    1675
 k-point  2 :   0.3750 0.1250 0.1250  plane waves:    1660
 k-point  3 :  -0.3750 0.1250 0.1250  plane waves:    1666
 k-point  4 :  -0.1250 0.1250 0.1250  plane waves:    1677
 k-point  5 :   0.1250 0.3750 0.1250  plane waves:    1676
 k-point  6 :   0.3750 0.3750 0.1250  plane waves:    1651
 k-point  7 :  -0.3750 0.3750 0.1250  plane waves:    1669
 k-point  8 :  -0.1250 0.3750 0.1250  plane waves:    1678
 k-point  9 :   0.1250-0.3750 0.1250  plane waves:    1675
 k-point 10 :   0.3750-0.3750 0.1250  plane waves:    1656
 k-point 11 :  -0.3750-0.3750 0.1250  plane waves:    1666
 k-point 12 :  -0.1250-0.3750 0.1250  plane waves:    1670
 k-point 13 :   0.1250-0.1250 0.1250  plane waves:    1661
 k-point 14 :   0.3750-0.1250 0.1250  plane waves:    1663
 k-point 15 :  -0.3750-0.1250 0.1250  plane waves:    1663
 k-point 16 :  -0.1250-0.1250 0.1250  plane waves:    1680
 k-point 17 :   0.1250 0.1250 0.3750  plane waves:    1651
 k-point 18 :   0.3750 0.1250 0.3750  plane waves:    1650
 k-point 19 :  -0.3750 0.1250 0.3750  plane waves:    1670
 k-point 20 :  -0.1250 0.1250 0.3750  plane waves:    1669
 k-point 21 :   0.1250 0.3750 0.3750  plane waves:    1660
 k-point 22 :   0.3750 0.3750 0.3750  plane waves:    1667
 k-point 23 :  -0.3750 0.3750 0.3750  plane waves:    1654
 k-point 24 :  -0.1250 0.3750 0.3750  plane waves:    1666
 k-point 25 :   0.1250-0.3750 0.3750  plane waves:    1663
 k-point 26 :   0.3750-0.3750 0.3750  plane waves:    1648
 k-point 27 :  -0.3750-0.3750 0.3750  plane waves:    1657
 k-point 28 :  -0.1250-0.3750 0.3750  plane waves:    1663
 k-point 29 :   0.1250-0.1250 0.3750  plane waves:    1656
 k-point 30 :   0.3750-0.1250 0.3750  plane waves:    1667
 k-point 31 :  -0.3750-0.1250 0.3750  plane waves:    1657
 k-point 32 :  -0.1250-0.1250 0.3750  plane waves:    1666

 maximum and minimum number of plane-waves per node :       431      405

 maximum number of plane-waves:      1680
 maximum index in each direction: 
   IXMAX=    6   IYMAX=   11   IZMAX=    6
   IXMIN=   -6   IYMIN=  -11   IZMIN=   -6


 parallel 3D FFT for wavefunctions:
    minimum data exchange during FFTs selected (reduces bandwidth)
 parallel 3D FFT for charge:
    minimum data exchange during FFTs selected (reduces bandwidth)


 total amount of memory used by VASP MPI-rank0    45715. kBytes
=======================================================================

   base      :      30000. kBytes
   nonl-proj :       6973. kBytes
   fftplans  :        616. kBytes
   grid      :       1491. kBytes
   one-center:         98. kBytes
   wavefun   :       6537. kBytes
 
     INWAV:  cpu time    0.0000: real time    0.0001
 Broyden mixing: mesh for mixing (old mesh)
   NGX = 13   NGY = 23   NGZ = 13
  (NGX  = 40   NGY  = 72   NGZ  = 40)
  gives a total of   3887 points

 initial charge density was supplied:
 charge density of overlapping atoms calculated
 number of electron      46.0000000 magnetization       0.0000000
 keeping initial charge density in first step


--------------------------------------------------------------------------------------------------------


 Maximum index for augmentation-charges         1568 (set IRDMAX)


--------------------------------------------------------------------------------------------------------


 First call to EWALD:  gamma=   0.440
 Maximum number of real-space cells 3x 2x 4
 Maximum number of reciprocal cells 3x 4x 3

    FEWALD:  cpu time    0.0013: real time    0.0013


--------------------------------------- Iteration      1(   1)  ---------------------------------------


    POTLOK:  cpu time    0.0217: real time    0.0237
    SETDIJ:  cpu time    0.0100: real time    0.0100
     EDDAV:  cpu time    0.9143: real time    0.9335
       DOS:  cpu time    0.0022: real time    0.0022
    --------------------------------------------
      LOOP:  cpu time    0.9482: real time    0.9694

 eigenvalue-minimisations  :  4240
 total energy-change (2. order) : 0.4375579E+03  (-0.1833684E+04)
 number of electron      46.0000000 magnetization       0.0000000
 augmentation part       46.0000000 magnetization       0.0000000

 Free energy of the ion-electron system (eV)
  ---------------------------------------------------
  alpha Z        PSCENC =       453.10565554
  Ewald energy   TEWEN  =     -4853.25068260
  -Hartree energ DENC   =     -1394.95400397
  -exchange      EXHF   =         0.00000000
  -V(xc)+E(xc)   XCENC  =       227.31529699
  PAW double counting   =      5122.54265185    -5413.80328534
  entropy T*S    EENTRO =        -0.00233453
  eigenvalues    EBANDS =       192.27842766
  atomic energy  EATOM  =      6104.32616516
  Solvation  Ediel_sol  =         0.00000000
  ---------------------------------------------------
  free energy    TOTEN  =       437.55789077 eV

  energy without entropy =      437.56022530  energy(sigma->0) =      437.55866895


--------------------------------------------------------------------------------------------------------




--------------------------------------- Iteration      1(   2)  ---------------------------------------


     EDDAV:  cpu time    0.9701: real time    0.9729
       DOS:  cpu time    0.0023: real time    0.0023
    --------------------------------------------
      LOOP:  cpu time    0.9724: real time    0.9753

 eigenvalue-minimisations  :  4832
 total energy-change (2. order) :-0.3828919E+03  (-0.3600477E+03)
 number of electron      46.0000000 magnetization       0.0000000
 augmentation part       46.0000000 magnetization       0.0000000

 Free energy of the ion-electron system (eV)
  ---------------------------------------------------
  alpha Z        PSCENC =       453.10565554
  Ewald energy   TEWEN  =     -4853.25068260
  -Hartree energ DENC   =     -1394.95400397
  -exchange      EXHF   =         0.00000000
  -V(xc)+E(xc)   XCENC  =       227.31529699
  PAW double counting   =      5122.54265185    -5413.80328534
  entropy T*S    EENTRO =        -0.00116295
  eigenvalues    EBANDS =      -190.61461057
  atomic energy  EATOM  =      6104.32616516
  Solvation  Ediel_sol  =         0.00000000
  ---------------------------------------------------
  free energy    TOTEN  =        54.66602412 eV

  energy without entropy =       54.66718707  energy(sigma->0) =       54.66641177


--------------------------------------------------------------------------------------------------------




--------------------------------------- Iteration      1(   3)  ---------------------------------------


     EDDAV:  cpu time    1.1979: real time    1.2012
       DOS:  cpu time    0.0028: real time    0.0028
    --------------------------------------------
      LOOP:  cpu time    1.2007: real time    1.2040

 eigenvalue-minimisations  :  6068
 total energy-change (2. order) :-0.9108388E+02  (-0.8913614E+02)
 number of electron      46.0000000 magnetization       0.0000000
 augmentation part       46.0000000 magnetization       0.0000000

 Free energy of the ion-electron system (eV)
  ---------------------------------------------------
  alpha Z        PSCENC =       453.10565554
  Ewald energy   TEWEN  =     -4853.25068260
  -Hartree energ DENC   =     -1394.95400397
  -exchange      EXHF   =         0.00000000
  -V(xc)+E(xc)   XCENC  =       227.31529699
  PAW double counting   =      5122.54265185    -5413.80328534
  entropy T*S    EENTRO =         0.00074301
  eigenvalues    EBANDS =      -281.70039806
  atomic energy  EATOM  =      6104.32616516
  Solvation  Ediel_sol  =         0.00000000
  ---------------------------------------------------
  free energy    TOTEN  =       -36.41785741 eV

  energy without entropy =      -36.41860042  energy(sigma->0) =      -36.41810508


--------------------------------------------------------------------------------------------------------




--------------------------------------- Iteration      1(   4)  ---------------------------------------


     EDDAV:  cpu time    1.1992: real time    1.2024
       DOS:  cpu time    0.0028: real time    0.0028
    --------------------------------------------
      LOOP:  cpu time    1.2020: real time    1.2052

 eigenvalue-minimisations  :  6204
 total energy-change (2. order) :-0.7734781E+01  (-0.7339039E+01)
 number of electron      46.0000000 magnetization       0.0000000
 augmentation part       46.0000000 magnetization       0.0000000

 Free energy of the ion-electron system (eV)
  ---------------------------------------------------
  alpha Z        PSCENC =       453.10565554
  Ewald energy   TEWEN  =     -4853.25068260
  -Hartree energ DENC   =     -1394.95400397
  -exchange      EXHF   =         0.00000000
  -V(xc)+E(xc)   XCENC  =       227.31529699
  PAW double counting   =      5122.54265185    -5413.80328534
  entropy T*S    EENTRO =        -0.00915567
  eigenvalues    EBANDS =      -289.42528041
  atomic energy  EATOM  =      6104.32616516
  Solvation  Ediel_sol  =         0.00000000
  ---------------------------------------------------
  free energy    TOTEN  =       -44.15263844 eV

  energy without entropy =      -44.14348277  energy(sigma->0) =      -44.14958655


--------------------------------------------------------------------------------------------------------




--------------------------------------- Iteration      1(   5)  ---------------------------------------


     EDDAV:  cpu time    1.2554: real time    1.2585
       DOS:  cpu time    0.0029: real time    0.0029
    CHARGE:  cpu time    0.0624: real time    0.0626
    MIXING:  cpu time    0.0006: real time    0.0006
    --------------------------------------------
      LOOP:  cpu time    1.3213: real time    1.3246

 eigenvalue-minimisations  :  6604
 total energy-change (2. order) :-0.8606974E+00  (-0.8112617E+00)
 number of electron      45.9999973 magnetization       0.0000000
 augmentation part        8.7043830 magnetization       0.0000000

 Broyden mixing:
  rms(total) = 0.26837E+01    rms(broyden)= 0.26835E+01
  rms(prec ) = 0.49428E+01
  weight for this iteration     100.00

 Free energy of the ion-electron system (eV)
  ---------------------------------------------------
  alpha Z        PSCENC =       453.10565554
  Ewald energy   TEWEN  =     -4853.25068260
  -Hartree energ DENC   =     -1394.95400397
  -exchange      EXHF   =         0.00000000
  -V(xc)+E(xc)   XCENC  =       227.31529699
  PAW double counting   =      5122.54265185    -5413.80328534
  entropy T*S    EENTRO =        -0.00927292
  eigenvalues    EBANDS =      -290.28586057
  atomic energy  EATOM  =      6104.32616516
  Solvation  Ediel_sol  =         0.00000000
  ---------------------------------------------------
  free energy    TOTEN  =       -45.01333586 eV

  energy without entropy =      -45.00406293  energy(sigma->0) =      -45.01024488


--------------------------------------------------------------------------------------------------------




--------------------------------------- Iteration      1(   6)  ---------------------------------------


    POTLOK:  cpu time    0.0175: real time    0.0177
    SETDIJ:  cpu time    0.0089: real time    0.0089
     EDDAV:  cpu time    1.1671: real time    1.1699
       DOS:  cpu time    0.0024: real time    0.0024
    CHARGE:  cpu time    0.0588: real time    0.0589
    MIXING:  cpu time    0.0007: real time    0.0007
    --------------------------------------------
      LOOP:  cpu time    1.2555: real time    1.2586

 eigenvalue-minimisations  :  5932
 total energy-change (2. order) :-0.4094168E+02  (-0.6668600E+02)
 number of electron      46.0000041 magnetization       0.0000000
 augmentation part       22.4749695 magnetization       0.0000000

 Broyden mixing:
  rms(total) = 0.10773E+02    rms(broyden)= 0.10773E+02
  rms(prec ) = 0.17639E+02
  weight for this iteration     100.00

 eigenvalues of (default mixing * dielectric matrix)
  average eigenvalue GAMMA=   0.1470
  0.1470

 Free energy of the ion-electron system (eV)
  ---------------------------------------------------
  alpha Z        PSCENC =       453.10565554
  Ewald energy   TEWEN  =     -4853.25068260
  -Hartree energ DENC   =     -1268.95675090
  -exchange      EXHF   =         0.00000000
  -V(xc)+E(xc)   XCENC  =       223.77925809
  PAW double counting   =      4938.84884483    -5174.46182764
  entropy T*S    EENTRO =        -0.00237607
  eigenvalues    EBANDS =      -509.34330125
  atomic energy  EATOM  =      6104.32616516
  Solvation  Ediel_sol  =         0.00000000
  ---------------------------------------------------
  free energy    TOTEN  =       -85.95501485 eV

  energy without entropy =      -85.95263878  energy(sigma->0) =      -85.95422282


--------------------------------------------------------------------------------------------------------




--------------------------------------- Iteration      1(   7)  ---------------------------------------


    POTLOK:  cpu time    0.0170: real time    0.0173
    SETDIJ:  cpu time    0.0082: real time    0.0082
     EDDAV:  cpu time    1.0919: real time    1.0945
       DOS:  cpu time    0.0030: real time    0.0030
    CHARGE:  cpu time    0.0589: real time    0.0591
    MIXING:  cpu time    0.0007: real time    0.0007
    --------------------------------------------
      LOOP:  cpu time    1.1797: real time    1.1827

 eigenvalue-minimisations  :  5564
 total energy-change (2. order) : 0.5896151E+02  (-0.4592387E+02)
 number of electron      45.9999991 magnetization       0.0000000
 augmentation part       10.4687901 magnetization       0.0000000

 Broyden mixing:
  rms(total) = 0.24536E+01    rms(broyden)= 0.24532E+01
  rms(prec ) = 0.25654E+01
  weight for this iteration     100.00

 eigenvalues of (default mixing * dielectric matrix)
  average eigenvalue GAMMA=   0.2258
  0.2258  0.2258

 Free energy of the ion-electron system (eV)
  ---------------------------------------------------
  alpha Z        PSCENC =       453.10565554
  Ewald energy   TEWEN  =     -4853.25068260
  -Hartree energ DENC   =     -1356.47663171
  -exchange      EXHF   =         0.00000000
  -V(xc)+E(xc)   XCENC  =       224.29462743
  PAW double counting   =      5163.24029506    -5453.07857827
  entropy T*S    EENTRO =         0.00514973
  eigenvalues    EBANDS =      -309.15950903
  atomic energy  EATOM  =      6104.32616516
  Solvation  Ediel_sol  =         0.00000000
  ---------------------------------------------------
  free energy    TOTEN  =       -26.99350869 eV

  energy without entropy =      -26.99865842  energy(sigma->0) =      -26.99522527


--------------------------------------------------------------------------------------------------------




--------------------------------------- Iteration      1(   8)  ---------------------------------------


    POTLOK:  cpu time    0.0165: real time    0.0167
    SETDIJ:  cpu time    0.0088: real time    0.0088
     EDDAV:  cpu time    1.1028: real time    1.1054
       DOS:  cpu time    0.0024: real time    0.0024
    CHARGE:  cpu time    0.0744: real time    0.0745
    MIXING:  cpu time    0.0007: real time    0.0007
    --------------------------------------------
      LOOP:  cpu time    1.2056: real time    1.2086

 eigenvalue-minimisations  :  5720
 total energy-change (2. order) :-0.1398343E+02  (-0.1066112E+02)
 number of electron      45.9999984 magnetization       0.0000000
 augmentation part       12.1758344 magnetization       0.0000000

 Broyden mixing:
  rms(total) = 0.21610E+01    rms(broyden)= 0.21608E+01
  rms(prec ) = 0.24275E+01
  weight for this iteration     100.00

 eigenvalues of (default mixing * dielectric matrix)
  average eigenvalue GAMMA=   0.3316
  0.3959  0.3959  0.2030

 Free energy of the ion-electron system (eV)
  ---------------------------------------------------
  alpha Z        PSCENC =       453.10565554
  Ewald energy   TEWEN  =     -4853.25068260
  -Hartree energ DENC   =     -1349.59875407
  -exchange      EXHF   =         0.00000000
  -V(xc)+E(xc)   XCENC  =       225.29966266
  PAW double counting   =      5183.22170060    -5472.86316227
  entropy T*S    EENTRO =        -0.00003121
  eigenvalues    EBANDS =      -331.21749438
  atomic energy  EATOM  =      6104.32616516
  Solvation  Ediel_sol  =         0.00000000
  ---------------------------------------------------
  free energy    TOTEN  =       -40.97694057 eV

  energy without entropy =      -40.97690936  energy(sigma->0) =      -40.97693017


--------------------------------------------------------------------------------------------------------




--------------------------------------- Iteration      1(   9)  ---------------------------------------


    POTLOK:  cpu time    0.0163: real time    0.0165
    SETDIJ:  cpu time    0.0087: real time    0.0088
     EDDAV:  cpu time    1.0921: real time    1.0947
       DOS:  cpu time    0.0025: real time    0.0025
    CHARGE:  cpu time    0.0561: real time    0.0562
    MIXING:  cpu time    0.0007: real time    0.0007
    --------------------------------------------
      LOOP:  cpu time    1.1766: real time    1.1795

 eigenvalue-minimisations  :  5724
 total energy-change (2. order) :-0.4796920E+00  (-0.1100285E+01)
 number of electron      45.9999984 magnetization      -0.0000000
 augmentation part       11.5980917 magnetization      -0.0000000

 Broyden mixing:
  rms(total) = 0.13125E+01    rms(broyden)= 0.13125E+01
  rms(prec ) = 0.15783E+01
  weight for this iteration     100.00

 eigenvalues of (default mixing * dielectric matrix)
  average eigenvalue GAMMA=   0.5192
  0.8156  0.1990  0.5311  0.5311

 Free energy of the ion-electron system (eV)
  ---------------------------------------------------
  alpha Z        PSCENC =       453.10565554
  Ewald energy   TEWEN  =     -4853.25068260
  -Hartree energ DENC   =     -1370.19868729
  -exchange      EXHF   =         0.00000000
  -V(xc)+E(xc)   XCENC  =       227.57371477
  PAW double counting   =      5209.42280377    -5507.11913047
  entropy T*S    EENTRO =         0.01724972
  eigenvalues    EBANDS =      -305.33372122
  atomic energy  EATOM  =      6104.32616516
  Solvation  Ediel_sol  =         0.00000000
  ---------------------------------------------------
  free energy    TOTEN  =       -41.45663261 eV

  energy without entropy =      -41.47388233  energy(sigma->0) =      -41.46238252


--------------------------------------------------------------------------------------------------------




--------------------------------------- Iteration      1(  10)  ---------------------------------------


    POTLOK:  cpu time    0.0168: real time    0.0170
    SETDIJ:  cpu time    0.0080: real time    0.0080
     EDDAV:  cpu time    1.2469: real time    1.2498
       DOS:  cpu time    0.0026: real time    0.0026
    CHARGE:  cpu time    0.0583: real time    0.0584
    MIXING:  cpu time    0.0009: real time    0.0009
    --------------------------------------------
      LOOP:  cpu time    1.3335: real time    1.3368

 eigenvalue-minimisations  :  6472
 total energy-change (2. order) :-0.1313049E+00  (-0.2162823E+00)
 number of electron      45.9999985 magnetization      -0.0000000
 augmentation part       11.2195456 magnetization      -0.0000000

 Broyden mixing:
  rms(total) = 0.87161E+00    rms(broyden)= 0.87160E+00
  rms(prec ) = 0.11379E+01
  weight for this iteration     100.00

 eigenvalues of (default mixing * dielectric matrix)
  average eigenvalue GAMMA=   0.5764
  0.8483  0.8483  0.1993  0.4930  0.4930

 Free energy of the ion-electron system (eV)
  ---------------------------------------------------
  alpha Z        PSCENC =       453.10565554
  Ewald energy   TEWEN  =     -4853.25068260
  -Hartree energ DENC   =     -1380.38027298
  -exchange      EXHF   =         0.00000000
  -V(xc)+E(xc)   XCENC  =       229.48502885
  PAW double counting   =      5227.15318250    -5533.00235179
  entropy T*S    EENTRO =         0.01160273
  eigenvalues    EBANDS =      -289.03626494
  atomic energy  EATOM  =      6104.32616516
  Solvation  Ediel_sol  =         0.00000000
  ---------------------------------------------------
  free energy    TOTEN  =       -41.58793752 eV

  energy without entropy =      -41.59954025  energy(sigma->0) =      -41.59180510


--------------------------------------------------------------------------------------------------------




--------------------------------------- Iteration      1(  11)  ---------------------------------------


    POTLOK:  cpu time    0.0175: real time    0.0179
    SETDIJ:  cpu time    0.0085: real time    0.0086
     EDDAV:  cpu time    1.3021: real time    1.3052
       DOS:  cpu time    0.0027: real time    0.0027
    CHARGE:  cpu time    0.0575: real time    0.0577
    MIXING:  cpu time    0.0008: real time    0.0008
    --------------------------------------------
      LOOP:  cpu time    1.3891: real time    1.3927

 eigenvalue-minimisations  :  6808
 total energy-change (2. order) :-0.1449132E+00  (-0.4894055E-01)
 number of electron      45.9999986 magnetization       0.0000000
 augmentation part       11.1451829 magnetization       0.0000000

 Broyden mixing:
  rms(total) = 0.59007E+00    rms(broyden)= 0.59006E+00
  rms(prec ) = 0.85881E+00
  weight for this iteration     100.00

 eigenvalues of (default mixing * dielectric matrix)
  average eigenvalue GAMMA=   0.8268
  2.0632  1.0547  0.1991  0.4997  0.4997  0.6443

 Free energy of the ion-electron system (eV)
  ---------------------------------------------------
  alpha Z        PSCENC =       453.10565554
  Ewald energy   TEWEN  =     -4853.25068260
  -Hartree energ DENC   =     -1384.24047813
  -exchange      EXHF   =         0.00000000
  -V(xc)+E(xc)   XCENC  =       230.48945191
  PAW double counting   =      5237.65251486    -5546.85456637
  entropy T*S    EENTRO =         0.00855230
  eigenvalues    EBANDS =      -282.96946338
  atomic energy  EATOM  =      6104.32616516
  Solvation  Ediel_sol  =         0.00000000
  ---------------------------------------------------
  free energy    TOTEN  =       -41.73285071 eV

  energy without entropy =      -41.74140301  energy(sigma->0) =      -41.73570147


--------------------------------------------------------------------------------------------------------




--------------------------------------- Iteration      1(  12)  ---------------------------------------


    POTLOK:  cpu time    0.0163: real time    0.0165
    SETDIJ:  cpu time    0.0077: real time    0.0077
     EDDAV:  cpu time    1.2152: real time    1.2180
       DOS:  cpu time    0.0026: real time    0.0026
    CHARGE:  cpu time    0.0565: real time    0.0567
    MIXING:  cpu time    0.0009: real time    0.0009
    --------------------------------------------
      LOOP:  cpu time    1.2993: real time    1.3025

 eigenvalue-minimisations  :  6384
 total energy-change (2. order) : 0.4513420E-01  (-0.1373473E+00)
 number of electron      45.9999988 magnetization       0.0000000
 augmentation part       11.4650311 magnetization       0.0000000

 Broyden mixing:
  rms(total) = 0.25302E+00    rms(broyden)= 0.25299E+00
  rms(prec ) = 0.37821E+00
  weight for this iteration     100.00

 eigenvalues of (default mixing * dielectric matrix)
  average eigenvalue GAMMA=   0.9310
  2.8242  1.1086  0.1991  0.5041  0.5041  0.6884  0.6884

 Free energy of the ion-electron system (eV)
  ---------------------------------------------------
  alpha Z        PSCENC =       453.10565554
  Ewald energy   TEWEN  =     -4853.25068260
  -Hartree energ DENC   =     -1382.15684886
  -exchange      EXHF   =         0.00000000
  -V(xc)+E(xc)   XCENC  =       232.67612661
  PAW double counting   =      5266.03949113    -5579.00719189
  entropy T*S    EENTRO =         0.01359144
  eigenvalues    EBANDS =      -283.43402304
  atomic energy  EATOM  =      6104.32616516
  Solvation  Ediel_sol  =         0.00000000
  ---------------------------------------------------
  free energy    TOTEN  =       -41.68771651 eV

  energy without entropy =      -41.70130795  energy(sigma->0) =      -41.69224699


--------------------------------------------------------------------------------------------------------




--------------------------------------- Iteration      1(  13)  ---------------------------------------


    POTLOK:  cpu time    0.0163: real time    0.0164
    SETDIJ:  cpu time    0.0086: real time    0.0086
     EDDAV:  cpu time    1.2198: real time    1.2227
       DOS:  cpu time    0.0028: real time    0.0028
    CHARGE:  cpu time    0.0673: real time    0.0675
    MIXING:  cpu time    0.0009: real time    0.0009
    --------------------------------------------
      LOOP:  cpu time    1.3158: real time    1.3190

 eigenvalue-minimisations  :  6308
 total energy-change (2. order) : 0.6202627E-01  (-0.3220531E-01)
 number of electron      45.9999988 magnetization       0.0000000
 augmentation part       11.6294096 magnetization       0.0000000

 Broyden mixing:
  rms(total) = 0.17992E+00    rms(broyden)= 0.17992E+00
  rms(prec ) = 0.25034E+00
  weight for this iteration     100.00

 eigenvalues of (default mixing * dielectric matrix)
  average eigenvalue GAMMA=   0.9733
  2.8945  1.4609  0.1991  0.5016  0.5016  0.8096  0.8096  0.6100

 Free energy of the ion-electron system (eV)
  ---------------------------------------------------
  alpha Z        PSCENC =       453.10565554
  Ewald energy   TEWEN  =     -4853.25068260
  -Hartree energ DENC   =     -1378.66446081
  -exchange      EXHF   =         0.00000000
  -V(xc)+E(xc)   XCENC  =       232.67831776
  PAW double counting   =      5266.60004532    -5577.29029949
  entropy T*S    EENTRO =         0.01466620
  eigenvalues    EBANDS =      -289.14509732
  atomic energy  EATOM  =      6104.32616516
  Solvation  Ediel_sol  =         0.00000000
  ---------------------------------------------------
  free energy    TOTEN  =       -41.62569024 eV

  energy without entropy =      -41.64035644  energy(sigma->0) =      -41.63057897


--------------------------------------------------------------------------------------------------------




--------------------------------------- Iteration      1(  14)  ---------------------------------------


    POTLOK:  cpu time    0.0169: real time    0.0171
    SETDIJ:  cpu time    0.0084: real time    0.0084
     EDDAV:  cpu time    1.1527: real time    1.1554
       DOS:  cpu time    0.0026: real time    0.0026
    CHARGE:  cpu time    0.0618: real time    0.0620
    MIXING:  cpu time    0.0010: real time    0.0010
    --------------------------------------------
      LOOP:  cpu time    1.2435: real time    1.2465

 eigenvalue-minimisations  :  5944
 total energy-change (2. order) : 0.7911329E-02  (-0.4462015E-02)
 number of electron      45.9999988 magnetization      -0.0000000
 augmentation part       11.6824155 magnetization      -0.0000000

 Broyden mixing:
  rms(total) = 0.15593E+00    rms(broyden)= 0.15593E+00
  rms(prec ) = 0.20861E+00
  weight for this iteration     100.00

 eigenvalues of (default mixing * dielectric matrix)
  average eigenvalue GAMMA=   1.0026
  2.9454  1.3118  1.3118  0.1991  0.5016  0.5016  0.8577  0.6971  0.6971

 Free energy of the ion-electron system (eV)
  ---------------------------------------------------
  alpha Z        PSCENC =       453.10565554
  Ewald energy   TEWEN  =     -4853.25068260
  -Hartree energ DENC   =     -1377.67448734
  -exchange      EXHF   =         0.00000000
  -V(xc)+E(xc)   XCENC  =       232.69437281
  PAW double counting   =      5271.91353900    -5581.35655656
  entropy T*S    EENTRO =         0.01454772
  eigenvalues    EBANDS =      -291.39033265
  atomic energy  EATOM  =      6104.32616516
  Solvation  Ediel_sol  =         0.00000000
  ---------------------------------------------------
  free energy    TOTEN  =       -41.61777891 eV

  energy without entropy =      -41.63232663  energy(sigma->0) =      -41.62262815


--------------------------------------------------------------------------------------------------------




--------------------------------------- Iteration      1(  15)  ---------------------------------------


    POTLOK:  cpu time    0.0171: real time    0.0173
    SETDIJ:  cpu time    0.0086: real time    0.0087
     EDDAV:  cpu time    1.2230: real time    1.2259
       DOS:  cpu time    0.0026: real time    0.0026
    CHARGE:  cpu time    0.0571: real time    0.0572
    MIXING:  cpu time    0.0011: real time    0.0011
    --------------------------------------------
      LOOP:  cpu time    1.3095: real time    1.3128

 eigenvalue-minimisations  :  6428
 total energy-change (2. order) : 0.5480050E-02  (-0.1862684E-02)
 number of electron      45.9999988 magnetization      -0.0000000
 augmentation part       11.7081380 magnetization      -0.0000000

 Broyden mixing:
  rms(total) = 0.11583E+00    rms(broyden)= 0.11583E+00
  rms(prec ) = 0.15357E+00
  weight for this iteration     100.00

 eigenvalues of (default mixing * dielectric matrix)
  average eigenvalue GAMMA=   1.0749
  2.7655  1.9413  1.9413  0.1991  0.5019  0.5019  0.7735  0.7735  0.6869  0.6641

 Free energy of the ion-electron system (eV)
  ---------------------------------------------------
  alpha Z        PSCENC =       453.10565554
  Ewald energy   TEWEN  =     -4853.25068260
  -Hartree energ DENC   =     -1377.93370218
  -exchange      EXHF   =         0.00000000
  -V(xc)+E(xc)   XCENC  =       232.66110864
  PAW double counting   =      5282.05033216    -5590.07051038
  entropy T*S    EENTRO =         0.01474218
  eigenvalues    EBANDS =      -292.51540737
  atomic energy  EATOM  =      6104.32616516
  Solvation  Ediel_sol  =         0.00000000
  ---------------------------------------------------
  free energy    TOTEN  =       -41.61229886 eV

  energy without entropy =      -41.62704104  energy(sigma->0) =      -41.61721292


--------------------------------------------------------------------------------------------------------




--------------------------------------- Iteration      1(  16)  ---------------------------------------


    POTLOK:  cpu time    0.0168: real time    0.0170
    SETDIJ:  cpu time    0.0078: real time    0.0078
     EDDAV:  cpu time    1.3228: real time    1.3259
       DOS:  cpu time    0.0028: real time    0.0028
    CHARGE:  cpu time    0.0644: real time    0.0646
    MIXING:  cpu time    0.0014: real time    0.0014
    --------------------------------------------
      LOOP:  cpu time    1.4159: real time    1.4194

 eigenvalue-minimisations  :  6844
 total energy-change (2. order) : 0.4680480E-03  (-0.1605904E-02)
 number of electron      45.9999988 magnetization      -0.0000000
 augmentation part       11.6929776 magnetization      -0.0000000

 Broyden mixing:
  rms(total) = 0.70280E-01    rms(broyden)= 0.70275E-01
  rms(prec ) = 0.83182E-01
  weight for this iteration     100.00

 eigenvalues of (default mixing * dielectric matrix)
  average eigenvalue GAMMA=   1.1267
  2.8053  2.2569  2.2569  0.1991  0.5017  0.5017  0.9365  0.9365  0.6873  0.6873
  0.6249

 Free energy of the ion-electron system (eV)
  ---------------------------------------------------
  alpha Z        PSCENC =       453.10565554
  Ewald energy   TEWEN  =     -4853.25068260
  -Hartree energ DENC   =     -1378.35888073
  -exchange      EXHF   =         0.00000000
  -V(xc)+E(xc)   XCENC  =       232.51482771
  PAW double counting   =      5288.01327156    -5595.39582332
  entropy T*S    EENTRO =         0.01528782
  eigenvalues    EBANDS =      -292.58165196
  atomic energy  EATOM  =      6104.32616516
  Solvation  Ediel_sol  =         0.00000000
  ---------------------------------------------------
  free energy    TOTEN  =       -41.61183081 eV

  energy without entropy =      -41.62711864  energy(sigma->0) =      -41.61692675


--------------------------------------------------------------------------------------------------------




--------------------------------------- Iteration      1(  17)  ---------------------------------------


    POTLOK:  cpu time    0.0174: real time    0.0176
    SETDIJ:  cpu time    0.0091: real time    0.0091
     EDDAV:  cpu time    1.2489: real time    1.2518
       DOS:  cpu time    0.0027: real time    0.0027
    CHARGE:  cpu time    0.0687: real time    0.0689
    MIXING:  cpu time    0.0012: real time    0.0012
    --------------------------------------------
      LOOP:  cpu time    1.3479: real time    1.3513

 eigenvalue-minimisations  :  6512
 total energy-change (2. order) :-0.3305085E-04  (-0.3490938E-03)
 number of electron      45.9999987 magnetization      -0.0000000
 augmentation part       11.6914942 magnetization      -0.0000000

 Broyden mixing:
  rms(total) = 0.45842E-01    rms(broyden)= 0.45841E-01
  rms(prec ) = 0.53873E-01
  weight for this iteration     100.00

 eigenvalues of (default mixing * dielectric matrix)
  average eigenvalue GAMMA=   1.1035
  2.6952  2.4580  2.4580  0.1991  0.5017  0.5017  0.9092  0.9092  0.6779  0.6779
  0.6271  0.6271

 Free energy of the ion-electron system (eV)
  ---------------------------------------------------
  alpha Z        PSCENC =       453.10565554
  Ewald energy   TEWEN  =     -4853.25068260
  -Hartree energ DENC   =     -1378.17010719
  -exchange      EXHF   =         0.00000000
  -V(xc)+E(xc)   XCENC  =       232.41878889
  PAW double counting   =      5287.89130945    -5595.27986829
  entropy T*S    EENTRO =         0.01533965
  eigenvalues    EBANDS =      -292.66846447
  atomic energy  EATOM  =      6104.32616516
  Solvation  Ediel_sol  =         0.00000000
  ---------------------------------------------------
  free energy    TOTEN  =       -41.61186386 eV

  energy without entropy =      -41.62720352  energy(sigma->0) =      -41.61697708


--------------------------------------------------------------------------------------------------------




--------------------------------------- Iteration      1(  18)  ---------------------------------------


    POTLOK:  cpu time    0.0164: real time    0.0166
    SETDIJ:  cpu time    0.0079: real time    0.0079
     EDDAV:  cpu time    1.1170: real time    1.1196
       DOS:  cpu time    0.0027: real time    0.0027
    CHARGE:  cpu time    0.0665: real time    0.0666
    MIXING:  cpu time    0.0013: real time    0.0013
    --------------------------------------------
      LOOP:  cpu time    1.2118: real time    1.2148

 eigenvalue-minimisations  :  5784
 total energy-change (2. order) :-0.8981391E-04  (-0.1766888E-03)
 number of electron      45.9999987 magnetization       0.0000000
 augmentation part       11.6778405 magnetization       0.0000000

 Broyden mixing:
  rms(total) = 0.29202E-01    rms(broyden)= 0.29202E-01
  rms(prec ) = 0.33256E-01
  weight for this iteration     100.00

 eigenvalues of (default mixing * dielectric matrix)
  average eigenvalue GAMMA=   1.0938
  2.5364  2.5364  2.5530  0.9732  0.9732  0.1991  0.5018  0.5018  0.7683  0.7683
  0.6540  0.6540  0.5999

 Free energy of the ion-electron system (eV)
  ---------------------------------------------------
  alpha Z        PSCENC =       453.10565554
  Ewald energy   TEWEN  =     -4853.25068260
  -Hartree energ DENC   =     -1378.20069823
  -exchange      EXHF   =         0.00000000
  -V(xc)+E(xc)   XCENC  =       232.35624286
  PAW double counting   =      5286.53547566    -5594.19587825
  entropy T*S    EENTRO =         0.01539723
  eigenvalues    EBANDS =      -292.30363104
  atomic energy  EATOM  =      6104.32616516
  Solvation  Ediel_sol  =         0.00000000
  ---------------------------------------------------
  free energy    TOTEN  =       -41.61195368 eV

  energy without entropy =      -41.62735090  energy(sigma->0) =      -41.61708609


--------------------------------------------------------------------------------------------------------




--------------------------------------- Iteration      1(  19)  ---------------------------------------


    POTLOK:  cpu time    0.0162: real time    0.0163
    SETDIJ:  cpu time    0.0080: real time    0.0081
     EDDAV:  cpu time    1.3652: real time    1.3684
       DOS:  cpu time    0.0027: real time    0.0027
    CHARGE:  cpu time    0.0675: real time    0.0676
    MIXING:  cpu time    0.0014: real time    0.0014
    --------------------------------------------
      LOOP:  cpu time    1.4609: real time    1.4645

 eigenvalue-minimisations  :  7128
 total energy-change (2. order) :-0.8992143E-04  (-0.3797387E-04)
 number of electron      45.9999987 magnetization       0.0000000
 augmentation part       11.6768094 magnetization       0.0000000

 Broyden mixing:
  rms(total) = 0.17613E-01    rms(broyden)= 0.17613E-01
  rms(prec ) = 0.20689E-01
  weight for this iteration     100.00

 eigenvalues of (default mixing * dielectric matrix)
  average eigenvalue GAMMA=   1.1170
  2.8146  2.8146  2.3106  0.1991  0.5017  0.5017  0.9124  0.9124  1.0407  0.8821
  0.7725  0.7725  0.6012  0.6012

 Free energy of the ion-electron system (eV)
  ---------------------------------------------------
  alpha Z        PSCENC =       453.10565554
  Ewald energy   TEWEN  =     -4853.25068260
  -Hartree energ DENC   =     -1378.10740057
  -exchange      EXHF   =         0.00000000
  -V(xc)+E(xc)   XCENC  =       232.31179177
  PAW double counting   =      5285.93064282    -5593.58420343
  entropy T*S    EENTRO =         0.01541930
  eigenvalues    EBANDS =      -292.35943159
  atomic energy  EATOM  =      6104.32616516
  Solvation  Ediel_sol  =         0.00000000
  ---------------------------------------------------
  free energy    TOTEN  =       -41.61204360 eV

  energy without entropy =      -41.62746290  energy(sigma->0) =      -41.61718337


--------------------------------------------------------------------------------------------------------




--------------------------------------- Iteration      1(  20)  ---------------------------------------


    POTLOK:  cpu time    0.0168: real time    0.0170
    SETDIJ:  cpu time    0.0078: real time    0.0078
     EDDAV:  cpu time    1.1231: real time    1.1257
       DOS:  cpu time    0.0026: real time    0.0026
    CHARGE:  cpu time    0.0656: real time    0.0658
    MIXING:  cpu time    0.0015: real time    0.0015
    --------------------------------------------
      LOOP:  cpu time    1.2174: real time    1.2205

 eigenvalue-minimisations  :  5784
 total energy-change (2. order) :-0.8091036E-05  (-0.7527551E-04)
 number of electron      45.9999987 magnetization      -0.0000000
 augmentation part       11.6686262 magnetization      -0.0000000

 Broyden mixing:
  rms(total) = 0.42597E-02    rms(broyden)= 0.42595E-02
  rms(prec ) = 0.52361E-02
  weight for this iteration     100.00

 eigenvalues of (default mixing * dielectric matrix)
  average eigenvalue GAMMA=   1.1433
  2.9153  2.9153  1.9355  1.9355  0.1991  0.5017  0.5017  0.9217  0.9217  0.8973
  0.8390  0.8390  0.6760  0.6005  0.5493

 Free energy of the ion-electron system (eV)
  ---------------------------------------------------
  alpha Z        PSCENC =       453.10565554
  Ewald energy   TEWEN  =     -4853.25068260
  -Hartree energ DENC   =     -1378.05932250
  -exchange      EXHF   =         0.00000000
  -V(xc)+E(xc)   XCENC  =       232.24404762
  PAW double counting   =      5284.70401809    -5592.49301410
  entropy T*S    EENTRO =         0.01551996
  eigenvalues    EBANDS =      -292.20443887
  atomic energy  EATOM  =      6104.32616516
  Solvation  Ediel_sol  =         0.00000000
  ---------------------------------------------------
  free energy    TOTEN  =       -41.61205169 eV

  energy without entropy =      -41.62757165  energy(sigma->0) =      -41.61722501


--------------------------------------------------------------------------------------------------------




--------------------------------------- Iteration      1(  21)  ---------------------------------------


    POTLOK:  cpu time    0.0165: real time    0.0167
    SETDIJ:  cpu time    0.0081: real time    0.0081
     EDDAV:  cpu time    1.3291: real time    1.3322
       DOS:  cpu time    0.0026: real time    0.0026
    CHARGE:  cpu time    0.0662: real time    0.0663
    MIXING:  cpu time    0.0016: real time    0.0016
    --------------------------------------------
      LOOP:  cpu time    1.4240: real time    1.4275

 eigenvalue-minimisations  :  6984
 total energy-change (2. order) : 0.1314612E-05  (-0.7911363E-05)
 number of electron      45.9999987 magnetization      -0.0000000
 augmentation part       11.6680310 magnetization      -0.0000000

 Broyden mixing:
  rms(total) = 0.61581E-02    rms(broyden)= 0.61580E-02
  rms(prec ) = 0.71256E-02
  weight for this iteration     100.00

 eigenvalues of (default mixing * dielectric matrix)
  average eigenvalue GAMMA=   1.2135
  3.0450  3.0450  2.5400  2.5400  0.1991  0.5017  0.5017  1.0196  1.0196  0.8947
  0.8947  0.7302  0.7302  0.6253  0.6253  0.5045

 Free energy of the ion-electron system (eV)
  ---------------------------------------------------
  alpha Z        PSCENC =       453.10565554
  Ewald energy   TEWEN  =     -4853.25068260
  -Hartree energ DENC   =     -1378.08797787
  -exchange      EXHF   =         0.00000000
  -V(xc)+E(xc)   XCENC  =       232.23255486
  PAW double counting   =      5284.55072528    -5592.31160841
  entropy T*S    EENTRO =         0.01551038
  eigenvalues    EBANDS =      -292.19239271
  atomic energy  EATOM  =      6104.32616516
  Solvation  Ediel_sol  =         0.00000000
  ---------------------------------------------------
  free energy    TOTEN  =       -41.61205037 eV

  energy without entropy =      -41.62756075  energy(sigma->0) =      -41.61722050


--------------------------------------------------------------------------------------------------------




--------------------------------------- Iteration      1(  22)  ---------------------------------------


    POTLOK:  cpu time    0.0163: real time    0.0167
    SETDIJ:  cpu time    0.0085: real time    0.0085
     EDDAV:  cpu time    1.1479: real time    1.1506
       DOS:  cpu time    0.0026: real time    0.0026
    CHARGE:  cpu time    0.0649: real time    0.0650
    MIXING:  cpu time    0.0018: real time    0.0018
    --------------------------------------------
      LOOP:  cpu time    1.2419: real time    1.2452

 eigenvalue-minimisations  :  5976
 total energy-change (2. order) : 0.3689307E-05  (-0.4380204E-05)
 number of electron      45.9999987 magnetization      -0.0000000
 augmentation part       11.6669410 magnetization      -0.0000000

 Broyden mixing:
  rms(total) = 0.29930E-02    rms(broyden)= 0.29928E-02
  rms(prec ) = 0.31167E-02
  weight for this iteration     100.00

 eigenvalues of (default mixing * dielectric matrix)
  average eigenvalue GAMMA=   1.2121
  2.9539  2.9539  2.7287  2.7287  1.1313  1.1313  0.1991  0.5017  0.5017  0.8864
  0.8864  0.7741  0.7741  0.6677  0.6426  0.6161  0.5271

 Free energy of the ion-electron system (eV)
  ---------------------------------------------------
  alpha Z        PSCENC =       453.10565554
  Ewald energy   TEWEN  =     -4853.25068260
  -Hartree energ DENC   =     -1378.17098181
  -exchange      EXHF   =         0.00000000
  -V(xc)+E(xc)   XCENC  =       232.24582701
  PAW double counting   =      5284.48635859    -5592.25504085
  entropy T*S    EENTRO =         0.01549445
  eigenvalues    EBANDS =      -292.11484217
  atomic energy  EATOM  =      6104.32616516
  Solvation  Ediel_sol  =         0.00000000
  ---------------------------------------------------
  free energy    TOTEN  =       -41.61204669 eV

  energy without entropy =      -41.62754113  energy(sigma->0) =      -41.61721150


--------------------------------------------------------------------------------------------------------




--------------------------------------- Iteration      1(  23)  ---------------------------------------


    POTLOK:  cpu time    0.0167: real time    0.0168
    SETDIJ:  cpu time    0.0079: real time    0.0079
     EDDAV:  cpu time    1.1497: real time    1.1524
       DOS:  cpu time    0.0027: real time    0.0027
    CHARGE:  cpu time    0.0654: real time    0.0656
    MIXING:  cpu time    0.0018: real time    0.0018
    --------------------------------------------
      LOOP:  cpu time    1.2442: real time    1.2472

 eigenvalue-minimisations  :  5920
 total energy-change (2. order) :-0.3492342E-05  (-0.1476105E-05)
 number of electron      45.9999987 magnetization      -0.0000000
 augmentation part       11.6666513 magnetization      -0.0000000

 Broyden mixing:
  rms(total) = 0.10600E-02    rms(broyden)= 0.10598E-02
  rms(prec ) = 0.12517E-02
  weight for this iteration     100.00

 eigenvalues of (default mixing * dielectric matrix)
  average eigenvalue GAMMA=   1.1809
  2.9548  2.9548  2.6529  2.6529  1.1713  1.1713  0.1991  0.5017  0.5017  0.8913
  0.8913  0.8002  0.8002  0.6816  0.6816  0.6154  0.6154  0.5190

 Free energy of the ion-electron system (eV)
  ---------------------------------------------------
  alpha Z        PSCENC =       453.10565554
  Ewald energy   TEWEN  =     -4853.25068260
  -Hartree energ DENC   =     -1378.20808774
  -exchange      EXHF   =         0.00000000
  -V(xc)+E(xc)   XCENC  =       232.25629893
  PAW double counting   =      5284.50090579    -5592.28031772
  entropy T*S    EENTRO =         0.01549185
  eigenvalues    EBANDS =      -292.07747939
  atomic energy  EATOM  =      6104.32616516
  Solvation  Ediel_sol  =         0.00000000
  ---------------------------------------------------
  free energy    TOTEN  =       -41.61205018 eV

  energy without entropy =      -41.62754203  energy(sigma->0) =      -41.61721413


--------------------------------------------------------------------------------------------------------




--------------------------------------- Iteration      1(  24)  ---------------------------------------


    POTLOK:  cpu time    0.0169: real time    0.0171
    SETDIJ:  cpu time    0.0080: real time    0.0080
     EDDAV:  cpu time    0.6222: real time    0.6237
       DOS:  cpu time    0.0026: real time    0.0026
    --------------------------------------------
      LOOP:  cpu time    0.6498: real time    0.6514

 eigenvalue-minimisations  :  2560
 total energy-change (2. order) : 0.2086972E-06  (-0.8881431E-07)
 number of electron      45.9999987 magnetization      -0.0000000
 augmentation part       11.6666513 magnetization      -0.0000000

 Free energy of the ion-electron system (eV)
  ---------------------------------------------------
  alpha Z        PSCENC =       453.10565554
  Ewald energy   TEWEN  =     -4853.25068260
  -Hartree energ DENC   =     -1378.20140646
  -exchange      EXHF   =         0.00000000
  -V(xc)+E(xc)   XCENC  =       232.25509217
  PAW double counting   =      5284.48207117    -5592.26870433
  entropy T*S    EENTRO =         0.01549691
  eigenvalues    EBANDS =      -292.07573753
  atomic energy  EATOM  =      6104.32616516
  Solvation  Ediel_sol  =         0.00000000
  ---------------------------------------------------
  free energy    TOTEN  =       -41.61204997 eV

  energy without entropy =      -41.62754687  energy(sigma->0) =      -41.61721560


--------------------------------------------------------------------------------------------------------




 average (electrostatic) potential at core
  the test charge radii are     1.1829  0.7215
  (the norm of the test charge is              1.0000)
       1 -37.4132       2 -37.4132       3 -71.1803       4 -71.1803
 
 
 
 E-fermi :   4.8362     XC(G=0): -11.0338     alpha+bet :-12.2018


 spin component 1

 k-point     1 :       0.1250    0.1250    0.1250
  band No.  band energies     occupation 
      1     -36.2644      1.00000
      2     -33.2010      1.00000
      3     -15.9162      1.00000
      4     -15.5304      1.00000
      5     -14.8677      1.00000
      6     -14.0098      1.00000
      7     -13.6208      1.00000
      8     -12.5919      1.00000
      9     -12.1036      1.00000
     10     -11.8422      1.00000
     11      -0.3365      1.00000
     12      -0.1142      1.00000
     13       0.2562      1.00000
     14       0.7614      1.00000
     15       0.7831      1.00000
     16       0.8887      1.00000
     17       4.3962      1.00000
     18       4.5584      1.00031
     19       4.5854      1.00112
     20       4.6469      1.01112
     21       4.6838      1.02655
     22       4.7267      1.03239
     23       4.7721      0.93777
     24       6.2780     -0.00000
     25       6.6208     -0.00000
     26       7.2338     -0.00000
     27       8.4555      0.00000
     28       8.5012      0.00000

 k-point     2 :       0.3750    0.1250    0.1250
  band No.  band energies     occupation 
      1     -36.2207      1.00000
      2     -33.1444      1.00000
      3     -16.1314      1.00000
      4     -15.3950      1.00000
      5     -15.0992      1.00000
      6     -14.4661      1.00000
      7     -13.3732      1.00000
      8     -12.9458      1.00000
      9     -12.4298      1.00000
     10     -11.8521      1.00000
     11      -0.3803      1.00000
     12       0.3093      1.00000
     13       0.3800      1.00000
     14       0.4925      1.00000
     15       0.6351      1.00000
     16       1.0181      1.00000
     17       4.4372      1.00000
     18       4.5121      1.00002
     19       4.5362      1.00009
     20       4.6009      1.00217
     21       4.6299      1.00647
     22       4.6766      1.02324
     23       4.7066      1.03474
     24       5.4492     -0.00000
     25       7.5086     -0.00000
     26       7.8823      0.00000
     27       8.7380      0.00000
     28       9.0881      0.00000

 k-point     3 :      -0.3750    0.1250    0.1250
  band No.  band energies     occupation 
      1     -36.2390      1.00000
      2     -33.1676      1.00000
      3     -15.9170      1.00000
      4     -15.6167      1.00000
[...]
 -4.020  -0.357  -0.000   0.000   0.000   0.000  -0.000  -0.000
  0.000  -0.000 -15.667   0.002   0.001   7.374  -0.002  -0.001
 -0.000   0.000   0.002 -15.665  -0.001  -0.002   7.372   0.001
 -0.000   0.000   0.001  -0.001 -15.665  -0.001   0.001   7.372
  0.000   0.000   7.374  -0.002  -0.001   4.939   0.001   0.001
 -0.000  -0.000  -0.002   7.372   0.001   0.001   4.941  -0.001
 -0.000  -0.000  -0.001   0.001   7.372   0.001  -0.001   4.941
  0.001  -0.000  -0.000   0.000   0.000  -0.000   0.000   0.000
  0.001  -0.000  -0.000   0.000   0.000  -0.000   0.000   0.000
  0.000   0.000  -0.000  -0.000   0.000  -0.000  -0.000   0.000
 -0.001   0.000   0.000  -0.000  -0.000   0.000  -0.000  -0.000
  0.001   0.000  -0.000  -0.000  -0.000  -0.000  -0.000  -0.000
 -0.001   0.000  -0.000   0.000   0.000   0.000  -0.000  -0.000
 -0.002   0.000  -0.000   0.000   0.000   0.000  -0.000  -0.000
 -0.000  -0.000   0.000   0.000  -0.000   0.000   0.000  -0.000
  0.001  -0.000   0.000  -0.000  -0.000  -0.000   0.000   0.000
 -0.001  -0.000   0.000  -0.000  -0.000   0.000   0.000   0.000
 -0.000   0.000   0.001  -0.003   0.000  -0.001  -0.001  -0.000
 -0.000   0.000  -0.000   0.000  -0.003   0.000  -0.000  -0.002
 -0.000   0.000   0.002   0.001  -0.000   0.000  -0.001   0.000
 -0.000   0.000  -0.001  -0.002   0.000   0.000  -0.001  -0.000
  0.000  -0.000  -0.000  -0.000   0.001   0.000   0.000   0.001
  0.000  -0.000  -0.004   0.001  -0.000  -0.001  -0.001   0.000
  0.000  -0.000  -0.000   0.000   0.001   0.000  -0.000  -0.001
 -0.000   0.000   0.001  -0.003   0.000  -0.001  -0.001  -0.000
 -0.000   0.000  -0.000   0.000  -0.003   0.000  -0.000  -0.002
 -0.000   0.000   0.002   0.001  -0.000   0.000  -0.001   0.000
 -0.000   0.000  -0.001  -0.002   0.000   0.000  -0.001  -0.000
  0.000  -0.000  -0.000  -0.000   0.001   0.000   0.000   0.001
  0.000  -0.000  -0.004   0.001  -0.000  -0.001  -0.001   0.000
  0.000  -0.000  -0.000   0.000   0.001   0.000   0.000  -0.001
 pseudopotential strength for first ion, spin component:           2
-15.731   0.730   0.000  -0.000  -0.000   0.000  -0.000  -0.000
  0.730  -3.409  -0.000   0.000   0.000   0.000  -0.000  -0.000
  0.000  -0.000 -17.547   0.001   0.001   7.755  -0.002  -0.002
 -0.000   0.000   0.001 -17.545  -0.001  -0.002   7.753   0.001
 -0.000   0.000   0.001  -0.001 -17.545  -0.002   0.001   7.753
  0.000   0.000   7.755  -0.002  -0.002   5.170   0.002   0.001
 -0.000  -0.000  -0.002   7.753   0.001   0.002   5.172  -0.001
 -0.000  -0.000  -0.002   0.001   7.753   0.001  -0.001   5.173
  0.001   0.000  -0.000   0.000   0.000  -0.000   0.000   0.000
  0.001   0.000  -0.000   0.000   0.000  -0.000   0.000   0.000
  0.000   0.000  -0.000  -0.000   0.000  -0.000  -0.000   0.000
 -0.000  -0.000   0.000  -0.000  -0.000   0.000  -0.000  -0.000
  0.001   0.000  -0.000  -0.000  -0.000  -0.000  -0.000  -0.000
 -0.001  -0.000  -0.000   0.000   0.000   0.000  -0.000  -0.000
 -0.002  -0.000  -0.000   0.000   0.000   0.000  -0.000  -0.000
 -0.000  -0.000   0.000   0.000  -0.000   0.000   0.000  -0.000
  0.001   0.000   0.000  -0.000  -0.000  -0.000   0.000   0.000
 -0.001  -0.000   0.000  -0.000  -0.000   0.000   0.000   0.000
 -0.000   0.000   0.000  -0.021   0.001  -0.000   0.012  -0.001
 -0.000   0.000  -0.000   0.001  -0.025   0.000  -0.001   0.013
 -0.000   0.000   0.012   0.002  -0.000  -0.007  -0.002   0.000
 -0.000   0.000  -0.000  -0.019   0.000   0.000   0.010  -0.000
  0.000  -0.000  -0.000  -0.000   0.012   0.000   0.000  -0.007
  0.000  -0.000  -0.027   0.001  -0.000   0.015  -0.001   0.000
  0.000  -0.000  -0.001  -0.000   0.002   0.001   0.000  -0.002
 -0.000   0.000   0.000  -0.020   0.001  -0.000   0.011  -0.001
 -0.000   0.000  -0.000   0.001  -0.024   0.000  -0.001   0.013
 -0.000   0.000   0.012   0.002  -0.000  -0.007  -0.002   0.000
 -0.000   0.000  -0.000  -0.018   0.000   0.000   0.010  -0.000
  0.000  -0.000  -0.000  -0.000   0.012   0.000   0.000  -0.006
  0.000  -0.000  -0.026   0.001  -0.000   0.015  -0.001   0.000
  0.000  -0.000  -0.001  -0.000   0.002   0.001   0.000  -0.001
 total augmentation occupancy for first ion, spin component:           1
  1.992  -0.037   0.000  -0.000   0.000   0.000   0.000   0.000  -0.000  -0.000   0.000   0.000   0.000   0.000   0.000   0.000
 -0.037   0.605   0.000   0.000   0.000  -0.000   0.000   0.000   0.000   0.001   0.000   0.000   0.001   0.000   0.000   0.000
  0.000   0.000   2.013  -0.000   0.000  -0.019   0.000   0.000   0.000  -0.000   0.000   0.000   0.000   0.000  -0.000  -0.000
  0.000   0.000  -0.000   2.012  -0.000   0.000  -0.019  -0.000  -0.000  -0.000   0.000  -0.000   0.000   0.000   0.000   0.000
  0.000   0.000   0.000  -0.000   2.012   0.000  -0.000  -0.019   0.000   0.000  -0.000   0.000  -0.000  -0.000  -0.000   0.000
  0.000   0.000  -0.019   0.000   0.000   0.020   0.000  -0.000   0.000   0.000   0.000   0.000   0.000   0.000   0.000   0.000
  0.000   0.000   0.000  -0.019  -0.000   0.000   0.020   0.000   0.000   0.000  -0.000  -0.000  -0.000   0.000   0.000   0.000
  0.000  -0.000   0.000  -0.000  -0.019  -0.000   0.000   0.020   0.000  -0.000   0.000   0.000   0.000   0.000   0.000  -0.000
 -0.000   0.000   0.000   0.000   0.000   0.000   0.000  -0.000   0.228   0.000   0.001  -0.083   0.001   0.063   0.000   0.000
 -0.000   0.001  -0.000  -0.000   0.000   0.000   0.000   0.000   0.000   0.287  -0.001   0.000  -0.083   0.000   0.084  -0.000
  0.000   0.000   0.000   0.000   0.000   0.000   0.000   0.000   0.001  -0.001   0.170   0.001  -0.001   0.000  -0.000   0.041
  0.000   0.000   0.000   0.000   0.000   0.000  -0.000   0.000  -0.083   0.000   0.001   0.287   0.000  -0.031   0.000   0.000
  0.000   0.001   0.000   0.000   0.000  -0.000  -0.000  -0.000   0.001  -0.083  -0.001   0.000   0.228   0.000  -0.031  -0.000
  0.000   0.000  -0.000  -0.000   0.000   0.000   0.000   0.000   0.063   0.000   0.000  -0.031   0.000   0.018   0.000   0.000
  0.000   0.000  -0.000  -0.000   0.000   0.000   0.000   0.000   0.000   0.084  -0.000   0.000  -0.031   0.000   0.026  -0.000
  0.000   0.000  -0.000   0.000   0.000  -0.000  -0.000   0.000   0.000  -0.000   0.041   0.000  -0.000   0.000  -0.000   0.010
 -0.000  -0.000   0.000   0.000  -0.000   0.000   0.000  -0.000  -0.031   0.000   0.000   0.084   0.000  -0.011   0.000   0.000
  0.000   0.000   0.000   0.000   0.000   0.000   0.000   0.000   0.000  -0.031  -0.000   0.000   0.063   0.000  -0.011  -0.000
  0.000   0.000   0.001  -0.120   0.000  -0.001   0.082   0.000   0.000   0.000   0.000  -0.000  -0.000   0.000   0.000  -0.000
  0.000   0.000  -0.000   0.000  -0.146   0.000   0.000   0.101   0.000  -0.000   0.000   0.000   0.000   0.000   0.000   0.000
  0.000   0.000   0.066   0.001  -0.000  -0.046  -0.000  -0.000   0.000   0.000   0.000   0.000  -0.000   0.000   0.000   0.000
 -0.000   0.000  -0.000  -0.107   0.000   0.000   0.073  -0.000  -0.000   0.000   0.000   0.000   0.000   0.000   0.000   0.000
  0.000   0.000  -0.000  -0.000   0.066  -0.000  -0.000  -0.045   0.000   0.000  -0.000   0.000   0.000   0.000  -0.000   0.000
 -0.000   0.000  -0.148   0.001  -0.000   0.101  -0.000   0.000   0.000   0.000   0.000   0.000   0.000   0.000   0.000   0.000
  0.000   0.000  -0.000  -0.000   0.001  -0.000   0.000  -0.000   0.000  -0.000   0.000   0.000   0.000   0.000  -0.000   0.000
 -0.000   0.000  -0.001   0.121  -0.000   0.000  -0.075  -0.000   0.000   0.000  -0.000   0.000   0.000   0.000   0.000  -0.000
 -0.000  -0.000   0.000  -0.000   0.148  -0.000  -0.000  -0.092  -0.000  -0.000  -0.000   0.000   0.000  -0.000   0.000  -0.000
  0.000   0.000  -0.067  -0.002   0.000   0.042   0.000  -0.000   0.000   0.000   0.000   0.000   0.000   0.000  -0.000   0.000
 -0.000   0.000   0.000   0.108  -0.000   0.000  -0.067  -0.000  -0.000   0.000   0.000   0.000   0.000  -0.000   0.000   0.000
  0.000   0.000   0.000   0.000  -0.067  -0.000  -0.000   0.041   0.000   0.000   0.000   0.000   0.000   0.000   0.000  -0.000
  0.000   0.000   0.150  -0.001   0.000  -0.093   0.000  -0.000   0.000   0.000   0.000   0.000   0.000   0.000   0.000   0.000
 -0.000   0.000   0.001   0.000  -0.001  -0.000  -0.000   0.000   0.000   0.000   0.000   0.000   0.000   0.000  -0.000   0.000
 total augmentation occupancy for first ion, spin component:           2
 -0.042  -0.160   0.000   0.000   0.000   0.000  -0.000   0.000   0.000  -0.000  -0.000  -0.000  -0.000   0.000  -0.000  -0.000
 -0.160   0.130   0.000   0.000  -0.000   0.000   0.000  -0.000  -0.000   0.004   0.003  -0.000   0.006  -0.000   0.001   0.001
 -0.000   0.000  -0.008   0.000   0.000  -0.044  -0.000  -0.000   0.000   0.000  -0.000  -0.000   0.000  -0.000   0.000  -0.000
  0.000   0.000   0.000  -0.007  -0.000  -0.000  -0.044   0.000   0.000  -0.000  -0.000   0.000   0.000   0.000   0.000   0.000
  0.000   0.000   0.000  -0.000  -0.007  -0.000   0.000  -0.044   0.000   0.000   0.000  -0.000   0.000   0.000   0.000   0.000
  0.000  -0.000  -0.044  -0.000  -0.000   0.003   0.000  -0.000   0.000  -0.000   0.000   0.000   0.000   0.000   0.000   0.000
  0.000   0.000  -0.000  -0.044   0.000   0.000   0.003   0.000  -0.000  -0.000  -0.000   0.000   0.000   0.000  -0.000   0.000
  0.000   0.000  -0.000   0.000  -0.044  -0.000   0.000   0.003   0.000   0.000  -0.000   0.000   0.000   0.000   0.000   0.000
  0.000  -0.000   0.000   0.000   0.000   0.000   0.000   0.000   0.038  -0.000  -0.000  -0.004  -0.000   0.010  -0.000  -0.000
 -0.000   0.004   0.000  -0.000   0.000   0.000   0.000   0.000  -0.000   0.040   0.000  -0.000  -0.008  -0.000   0.011   0.000
 -0.000   0.003   0.000   0.000   0.000   0.000   0.000   0.000  -0.000   0.000   0.036  -0.000  -0.003  -0.000   0.000   0.008
 -0.000  -0.000  -0.000   0.000   0.000  -0.000   0.000   0.000  -0.004  -0.000  -0.000   0.045  -0.000  -0.002  -0.000  -0.000
 -0.000   0.006   0.000   0.000   0.000  -0.000   0.000   0.000  -0.000  -0.008  -0.003  -0.000   0.036  -0.000  -0.003  -0.001
  0.000  -0.000   0.000   0.000   0.000  -0.000   0.000   0.000   0.010  -0.000  -0.000  -0.002  -0.000   0.003  -0.000  -0.000
 -0.000   0.001   0.000   0.000   0.000   0.000   0.000   0.000  -0.000   0.011   0.000  -0.000  -0.003  -0.000   0.003   0.000
 -0.000   0.001  -0.000   0.000   0.000   0.000   0.000   0.000  -0.000   0.000   0.008  -0.000  -0.001  -0.000   0.000   0.002
 -0.000  -0.000   0.000   0.000   0.000   0.000   0.000   0.000  -0.002  -0.000  -0.000   0.013  -0.000  -0.001  -0.000  -0.000
 -0.000   0.002   0.000  -0.000   0.000   0.000   0.000   0.000  -0.000  -0.003  -0.001  -0.000   0.009   0.000  -0.001  -0.000
  0.000   0.000   0.001  -0.013  -0.000  -0.002   0.025   0.000   0.000  -0.000   0.000   0.000   0.000   0.000  -0.000  -0.000
 -0.000  -0.000   0.000   0.000  -0.015   0.000  -0.000   0.029   0.000  -0.000   0.000   0.000   0.000   0.000   0.000   0.000
  0.000   0.000   0.008   0.000   0.000  -0.015  -0.001  -0.000  -0.000   0.000   0.000   0.000  -0.000   0.000   0.000   0.000
  0.000   0.000   0.000  -0.011   0.000   0.000   0.021  -0.000   0.000   0.000   0.000   0.000   0.000   0.000   0.000   0.000
  0.000   0.000   0.000   0.000   0.007  -0.000  -0.000  -0.014   0.000  -0.000   0.000   0.000   0.000  -0.000   0.000   0.000
  0.000   0.000  -0.017   0.001   0.000   0.032  -0.002   0.000  -0.000   0.000  -0.000  -0.000   0.000   0.000   0.000   0.000
  0.000   0.000   0.000   0.000   0.001  -0.000   0.000  -0.002  -0.000  -0.000   0.000   0.000   0.000   0.000   0.000   0.000
  0.000   0.000  -0.001  -0.002   0.000   0.002  -0.011   0.000   0.000   0.000  -0.000   0.000   0.000   0.000   0.000   0.000
  0.000   0.000  -0.000  -0.000  -0.003  -0.000   0.000  -0.012   0.000   0.000   0.000   0.000   0.000   0.000   0.000  -0.000
  0.000  -0.000  -0.000  -0.000  -0.000   0.008   0.002   0.000   0.000  -0.000   0.000  -0.000   0.000   0.000   0.000   0.000
  0.000   0.000  -0.000  -0.002  -0.000  -0.000  -0.009   0.000   0.000  -0.000   0.000   0.000   0.000   0.000   0.000   0.000
  0.000   0.000  -0.000  -0.000   0.001   0.000   0.000   0.006  -0.000   0.000   0.000   0.000   0.000  -0.000   0.000   0.000
  0.000   0.000  -0.001  -0.001  -0.000  -0.016   0.002  -0.000   0.000   0.000   0.000  -0.000   0.000  -0.000   0.000  -0.000
 -0.000   0.000  -0.000  -0.000  -0.001   0.000  -0.000   0.003  -0.000  -0.000   0.000   0.000   0.000  -0.000   0.000   0.000


------------------------ aborting loop because EDIFF is reached ----------------------------------------


 


 total charge     
 
# of ion       s       p       d       f       tot
--------------------------------------------------
    1        2.083   5.888   0.613   6.722  15.306
    2        2.083   5.888   0.613   6.722  15.306
    3        1.558   3.407   0.000   0.000   4.965
    4        1.558   3.407   0.000   0.000   4.965
--------------------------------------------------
tot          7.282  18.590   1.225  13.444  40.542

 


 magnetization (x)
 
# of ion       s       p       d       f       tot
--------------------------------------------------
    1       -0.006  -0.010   0.102   6.617   6.703
    2        0.006   0.010  -0.102  -6.617  -6.703
    3       -0.000   0.000   0.000   0.000  -0.000
    4       -0.000   0.000   0.000   0.000   0.000
--------------------------------------------------
tot         -0.000   0.000   0.000  -0.000  -0.000

 
    CHARGE:  cpu time    0.0657: real time    0.0659
    FORLOC:  cpu time    0.0008: real time    0.0008
    FORNL :  cpu time    0.2408: real time    0.2414
    STRESS:  cpu time    0.3494: real time    0.3503
    FORCOR:  cpu time    0.0172: real time    0.0172
    FORHAR:  cpu time    0.0022: real time    0.0022
    MIXING:  cpu time    0.0017: real time    0.0017
    OFIELD:  cpu time    0.0000: real time    0.0000

  FORCE on cell =-STRESS in cart. coord.  units (eV):
  Direction    XX          YY          ZZ          XY          YZ          ZX
  --------------------------------------------------------------------------------------
  Alpha Z   453.10566   453.10566   453.10566
  Ewald   -1617.75261 -1617.75125 -1617.75302     0.00351     0.00252    -0.00245
  Hartree   459.45731   459.27834   459.40081     0.03807     0.07462     0.00732
  E(xc)    -244.16673  -244.18194  -244.16922    -0.00020     0.00479     0.00091
  Local     422.52444   422.85187   422.65154    -0.11173    -0.15879    -0.00449
  n-local  -226.51974  -226.55796  -226.46628     0.01201    -0.03393    -0.00315
  augment    96.47190    96.39757    96.44877     0.04462     0.05768    -0.02279
  Kinetic   656.57190   656.79896   656.40456     0.00363    -0.08845    -0.00248
  Fock        0.00000     0.00000     0.00000     0.00000     0.00000     0.00000
  -------------------------------------------------------------------------------------
  Total      -0.36662    -0.04756    -0.32964    -0.00283    -0.11746     0.00606
  in kB      -8.95744    -1.16193    -8.05388    -0.06917    -2.86990     0.14802
  external pressure =       -6.06 kB  Pullay stress =        0.00 kB


 VOLUME and BASIS-vectors are now :
 -----------------------------------------------------------------------------
  energy-cutoff  :      500.00
  volume of cell :       65.58
      direct lattice vectors                 reciprocal lattice vectors
     1.796252600 -1.037116700 -2.933334000     0.278346409 -0.000005520 -0.170459216
    -1.796269600  5.185441500 -2.933334000     0.000000000  0.160705608 -0.056819466
     1.796393000  1.037116700  2.933334000     0.278346409  0.160700088  0.113630332

  length of vectors
     3.592573285  6.222526527  3.592643486     0.326394037  0.170454522  0.340900416


 FORCES acting on ions
    electron-ion (+dipol)            ewald-force                    non-local-force                 convergence-correction
 -----------------------------------------------------------------------------------------------
   -.291E-05 0.196E-05 -.193E-05   0.283E-04 -.191E-04 0.187E-04   0.529E-21 0.529E-22 -.635E-21   -.415E-08 0.279E-08 -.274E-08
   -.291E-05 0.196E-05 -.193E-05   0.283E-04 -.191E-04 0.187E-04   -.318E-21 -.318E-21 -.212E-21   -.415E-08 0.279E-08 -.274E-08
   -.168E-03 0.113E-03 -.111E-03   -.283E-04 0.191E-04 -.187E-04   -.424E-21 0.148E-20 -.847E-21   -.155E-08 0.987E-09 -.101E-08
   -.168E-03 0.113E-03 -.111E-03   -.283E-04 0.191E-04 -.187E-04   0.000E+00 -.635E-21 -.847E-21   -.155E-08 0.987E-09 -.101E-08
 -----------------------------------------------------------------------------------------------
   -.343E-03 0.231E-03 -.227E-03   0.119E-13 0.187E-15 -.134E-13   -.212E-21 0.582E-21 -.254E-20   -.114E-07 0.756E-08 -.750E-08
 
 
 POSITION                                       TOTAL-FORCE (eV/Angst)
 -----------------------------------------------------------------------------------
      0.00000      0.00000      0.00000        -0.000000      0.000000      0.000000
     -0.00001      2.07416     -2.93333        -0.000000      0.000000      0.000000
      1.79632      1.03708     -1.46667         0.000000     -0.000000     -0.000000
      0.00006      4.14836     -1.46667        -0.000000      0.000000     -0.000000
 -----------------------------------------------------------------------------------
    total drift:                               -0.000343      0.000231     -0.000227


--------------------------------------------------------------------------------------------------------



  FREE ENERGIE OF THE ION-ELECTRON SYSTEM (eV)
  ---------------------------------------------------
  free  energy   TOTEN  =       -41.61204997 eV

  energy  without entropy=      -41.62754687  energy(sigma->0) =      -41.61721560
 


--------------------------------------------------------------------------------------------------------


    POTLOK:  cpu time    0.0248: real time    0.0248


--------------------------------------------------------------------------------------------------------


     LOOP+:  cpu time   30.2862: real time   30.3836
    4ORBIT:  cpu time    0.0000: real time    0.0000
 


 total charge     
 
# of ion       s       p       d       f       tot
--------------------------------------------------
    1        2.083   5.888   0.613   6.722  15.306
    2        2.083   5.888   0.613   6.722  15.306
    3        1.558   3.407   0.000   0.000   4.965
    4        1.558   3.407   0.000   0.000   4.965
--------------------------------------------------
tot          7.282  18.590   1.225  13.444  40.542

 


 magnetization (x)
 
# of ion       s       p       d       f       tot
--------------------------------------------------
    1       -0.006  -0.010   0.102   6.617   6.703
    2        0.006   0.010  -0.102  -6.617  -6.703
    3       -0.000   0.000   0.000   0.000  -0.000
    4       -0.000   0.000   0.000   0.000   0.000
--------------------------------------------------
tot         -0.000   0.000   0.000  -0.000  -0.000

 

 total amount of memory used by VASP MPI-rank0    45715. kBytes
=======================================================================

   base      :      30000. kBytes
   nonl-proj :       6973. kBytes
   fftplans  :        616. kBytes
   grid      :       1491. kBytes
   one-center:         98. kBytes
   wavefun   :       6537. kBytes
 
  
  
 General timing and accounting informations for this job:
 ========================================================
  
                  Total CPU time used (sec):       31.616
                            User time (sec):       31.401
                          System time (sec):        0.216
                         Elapsed time (sec):       32.163
  
                   Maximum memory used (kb):       67304.
                   Average memory used (kb):           0.
  
                          Minor page faults:        20025
                          Major page faults:            0
                 Voluntary context switches:         1448
