 vasp.5.4.4.18Apr17-6-g9f103f2a35 (build Apr 28 2018 00:24:27) complex          
  
 executed on             LinuxIFC date 2021.03.25  01:51:13
 running on    8 total cores
 distrk:  each k-point on    8 cores,    1 groups
 distr:  one band on NCORES_PER_BAND=   4 cores,    2 groups


--------------------------------------------------------------------------------------------------------


 INCAR:
 POTCAR:    PAW_PBE Eu 23Dec2003                  
 POTCAR:    PAW_PBE O 08Apr2002                   
 POTCAR:    PAW_PBE Eu 23Dec2003                  
   SHA256 =  ed303d27e7c5191953f9b15539336e6f36d9037c1d2e92e80c13d733697cb93d Eu
   COPYR  = (c) Copyright 23Dec2003 Georg Kresse                                
   COPYR  = This file is part of the software VASP. Any use, copying, and all ot
   COPYR  = If you do not have a valid VASP license, you may not use, copy or di
   VRHFIN =Eu : [core=Kr4d]                                                     
   LEXCH  = PE                                                                  
   EATOM  =  2619.8085 eV,  192.5505 Ry                                         
                                                                                
   TITEL  = PAW_PBE Eu 23Dec2003                                                
   LULTRA =        F    use ultrasoft PP ?                                      
   IUNSCR =        1    unscreen: 0-lin 1-nonlin 2-no                           
   RPACOR =    2.300    partial core radius                                     
   POMASS =  151.965; ZVAL   =   17.000    mass and valenz                      
   RCORE  =    2.800    outmost cutoff radius                                   
   RWIGS  =    2.800; RWIGS  =    1.482    wigner-seitz radius (au A)           
   ENMAX  =  249.668; ENMIN  =  187.251 eV                                      
   RCLOC  =    2.308    cutoff for local pot                                    
   LCOR   =        T    correct aug charges                                     
   LPAW   =        T    paw PP                                                  
   EAUG   =  549.628                                                            
   DEXC   =    0.000                                                            
   RMAX   =    2.870    core radius for proj-oper                               
   RAUG   =    1.300    factor for augmentation sphere                          
   RDEP   =    2.887    radius for radial grids                                 
   RDEPT  =    2.221    core radius for aug-charge                              
                                                                                
   Atomic configuration                                                         
   14 entries                                                                   
     n  l   j            E        occ.                                          
     1  0  0.50    -48354.7667   2.0000                                         
     2  0  0.50     -7939.6472   2.0000                                         
     2  1  1.50     -7072.6637   6.0000                                         
     3  0  0.50     -1747.1875   2.0000                                         
     3  1  1.50     -1477.5221   6.0000                                         
     3  2  2.50     -1117.4686  10.0000                                         
     4  0  0.50      -346.8682   2.0000                                         
     4  1  1.50      -258.1962   6.0000                                         
     4  2  2.50      -134.7724  10.0000                                         
     5  0  0.50       -44.6510   2.0000                                         
     6  0  0.50        -3.6227   2.0000                                         
     5  1  1.50       -23.7639   6.0000                                         
     5  2  2.50        -1.3130   0.0000                                         
     4  3  2.50        -2.7310   7.0000                                         
   Description                                                                  
     l       E           TYP  RCUT    TYP  RCUT                                 
     0    -44.6510453     23  2.400                                             
     0     -3.6226685     23  2.400                                             
     1    -23.7638687     23  2.400                                             
     1     27.2116520     23  2.400                                             
     2     -1.3129622     23  2.500                                             
     2     13.6058260     23  2.500                                             
     3     -2.7309948     23  2.800                                             
     3     -3.4014565     23  2.800                                             
  local pseudopotential read in
  partial core-charges read in
  partial kinetic energy density read in
  atomic valenz-charges read in
  non local Contribution for L=           0  read in
    real space projection operators read in
  non local Contribution for L=           0  read in
    real space projection operators read in
  non local Contribution for L=           1  read in
    real space projection operators read in
  non local Contribution for L=           1  read in
    real space projection operators read in
  non local Contribution for L=           2  read in
    real space projection operators read in
  non local Contribution for L=           2  read in
    real space projection operators read in
  non local Contribution for L=           3  read in
    real space projection operators read in
  non local Contribution for L=           3  read in
    real space projection operators read in
    PAW grid and wavefunctions read in
 
   number of l-projection  operators is LMAX  =           8
   number of lm-projection operators is LMMAX =          32
 
 POTCAR:    PAW_PBE O 08Apr2002                   
   SHA256 =  818f92134a0a090dccd8ba1447fa70422a3b330e708bb4f08108d8ae51209ddf O/
   COPYR  = (c) Copyright 08Apr2002 Georg Kresse                                
   COPYR  = This file is part of the software VASP. Any use, copying, and all ot
   COPYR  = If you do not have a valid VASP license, you may not use, copy or di
   VRHFIN =O: s2p4                                                              
   LEXCH  = PE                                                                  
   EATOM  =   432.3788 eV,   31.7789 Ry                                         
                                                                                
   TITEL  = PAW_PBE O 08Apr2002                                                 
   LULTRA =        F    use ultrasoft PP ?                                      
   IUNSCR =        1    unscreen: 0-lin 1-nonlin 2-no                           
   RPACOR =    1.200    partial core radius                                     
   POMASS =   16.000; ZVAL   =    6.000    mass and valenz                      
   RCORE  =    1.520    outmost cutoff radius                                   
   RWIGS  =    1.550; RWIGS  =    0.820    wigner-seitz radius (au A)           
   ENMAX  =  400.000; ENMIN  =  300.000 eV                                      
   ICORE  =        2    local potential                                         
   LCOR   =        T    correct aug charges                                     
   LPAW   =        T    paw PP                                                  
   EAUG   =  605.392                                                            
   DEXC   =    0.000                                                            
   RMAX   =    1.553    core radius for proj-oper                               
   RAUG   =    1.300    factor for augmentation sphere                          
   RDEP   =    1.550    radius for radial grids                                 
   RDEPT  =    1.329    core radius for aug-charge                              
                                                                                
   Atomic configuration                                                         
    4 entries                                                                   
     n  l   j            E        occ.                                          
     1  0  0.50      -514.6923   2.0000                                         
     2  0  0.50       -23.9615   2.0000                                         
     2  1  0.50        -9.0305   4.0000                                         
     3  2  1.50        -9.5241   0.0000                                         
   Description                                                                  
     l       E           TYP  RCUT    TYP  RCUT                                 
     0    -23.9615318     23  1.200                                             
     0     -9.5240782     23  1.200                                             
     1     -9.0304911     23  1.520                                             
     1      8.1634956     23  1.520                                             
     2     -9.5240782      7  1.500                                             
  local pseudopotential read in
  partial core-charges read in
  partial kinetic energy density read in
  kinetic energy density of atom read in
  atomic valenz-charges read in
  non local Contribution for L=           0  read in
    real space projection operators read in
  non local Contribution for L=           0  read in
    real space projection operators read in
  non local Contribution for L=           1  read in
    real space projection operators read in
  non local Contribution for L=           1  read in
    real space projection operators read in
    PAW grid and wavefunctions read in
 
   number of l-projection  operators is LMAX  =           4
   number of lm-projection operators is LMMAX =           8
 
  PAW_PBE Eu 23Dec2003                  :
 energy of atom  1       EATOM=-2619.8085
 kinetic energy error for atom=    0.0019 (will be added to EATOM!!)
  PAW_PBE O 08Apr2002                   :
 energy of atom  2       EATOM= -432.3788
 kinetic energy error for atom=    0.0224 (will be added to EATOM!!)
 
 
 POSCAR: Eu1 O1 str #: 5                         
  positions in direct lattice
  No initial velocities read in
 exchange correlation table for  LEXCH =        8
   RHO(1)=    0.500       N(1)  =     2000
   RHO(2)=  100.500       N(2)  =     4000
 


--------------------------------------------------------------------------------------------------------


 ion  position               nearest neighbor table
   1  0.000  0.000  0.000-   3 2.54   4 2.54   4 2.54   3 2.54   3 2.54   4 2.54
   2  0.500  0.500  0.000-   4 2.54   3 2.54   3 2.54   4 2.54   4 2.54   3 2.54
   3  0.750  0.250  0.500-   1 2.54   2 2.54   2 2.54   1 2.54   1 2.54   2 2.54
   4  0.250  0.750  0.500-   2 2.54   1 2.54   1 2.54   2 2.54   2 2.54   1 2.54
 
  LATTYP: Found a base centered monoclinic cell.
 ALAT       =     6.2226840220
 B/A-ratio  =     0.5773350008
 C/A-ratio  =     1.1546911194
 COS(beta)  =    -0.5000183251
  
  Lattice vectors:
  
 A1 = (   3.5926456000,   0.0000000000,   0.0000000000)
 A2 = (   1.7963930000,   1.0371167000,   2.9333340000)
 A3 = (  -3.5927690000,  -6.2225582000,   0.0000000000)


Analysis of symmetry for initial positions (statically):
=====================================================================
 Subroutine PRICEL returns following result:
 
  LATTYP: Found a trigonal (rhomboedric) cell.
 ALAT       =     3.5926434857
 COS(alpha) =     0.5000183251
  
  Lattice vectors:
  
 A1 = (  -1.7963930000,  -1.0371167000,  -2.9333340000)
 A2 = (  -1.7963845000,  -3.1112791000,   0.0000000000)
 A3 = (  -3.5926456000,   0.0000000000,   0.0000000000)
 
   2 primitive cells build up your supercell.
 

 Routine SETGRP: Setting up the symmetry group for a 
 base centered monoclinic supercell.


 Subroutine GETGRP returns: Found  4 space group operations
 (whereof  4 operations were pure point group operations)
 out of a pool of  4 trial point group operations.


The static configuration has the point symmetry C_2h.


Analysis of symmetry for dynamics (positions and initial velocities):
=====================================================================
 Subroutine PRICEL returns following result:
 
  LATTYP: Found a trigonal (rhomboedric) cell.
 ALAT       =     3.5926434857
 COS(alpha) =     0.5000183251
  
  Lattice vectors:
  
 A1 = (  -1.7963930000,  -1.0371167000,  -2.9333340000)
 A2 = (  -1.7963845000,  -3.1112791000,   0.0000000000)
 A3 = (  -3.5926456000,   0.0000000000,   0.0000000000)
 
   2 primitive cells build up your supercell.
 

 Routine SETGRP: Setting up the symmetry group for a 
 base centered monoclinic supercell.


 Subroutine GETGRP returns: Found  4 space group operations
 (whereof  4 operations were pure point group operations)
 out of a pool of  4 trial point group operations.


The dynamic configuration has the point symmetry C_2h.


Analysis of structural, dynamic, and magnetic symmetry:
=====================================================================
 Subroutine PRICEL returns following result:
 
  LATTYP: Found a trigonal (rhomboedric) cell.
 ALAT       =     3.5926434857
 COS(alpha) =     0.5000183251
  
  Lattice vectors:
  
 A1 = (  -1.7963930000,  -1.0371167000,  -2.9333340000)
 A2 = (  -1.7963845000,  -3.1112791000,   0.0000000000)
 A3 = (  -3.5926456000,   0.0000000000,   0.0000000000)
 
   2 primitive cells build up your supercell.
 

 Routine SETGRP: Setting up the symmetry group for a 
 base centered monoclinic supercell.


 Subroutine GETGRP returns: Found  4 space group operations
 (whereof  4 operations were pure point group operations)
 out of a pool of  4 trial point group operations.


The magnetic configuration has the point symmetry C_2h.


 Subroutine INISYM returns: Found  4 space group operations
 (whereof  4 operations are pure point group operations),
 and found     2 'primitive' translations

 
 

Automatic generation of k-mesh.
 generate k-points for:    5    3    5
Space group operators:
 irot       det(A)        alpha          n_x          n_y          n_z        tau_x        tau_y        tau_z
    1     1.000000     0.000000     1.000000     0.000000     0.000000     0.000000     0.000000     0.000000
    2    -1.000000     0.000000     1.000000     0.000000     0.000000     0.000000     0.000000     0.000000
    3     1.000000   179.999999    -0.499990     0.288683     0.816500     0.000000     0.000000     0.000000
    4    -1.000000   179.999999    -0.499990     0.288683     0.816500     0.000000     0.000000     0.000000
 
 Subroutine IBZKPT returns following result:
 ===========================================
 
 Found     24 irreducible k-points:
 
 Following reciprocal coordinates:
            Coordinates               Weight
  0.000000  0.000000  0.000000      1.000000
  0.200000 -0.000000  0.000000      4.000000
  0.400000 -0.000000  0.000000      4.000000
  0.000000  0.333333 -0.000000      2.000000
  0.200000  0.333333  0.000000      4.000000
  0.400000  0.333333  0.000000      4.000000
 -0.400000  0.333333  0.000000      4.000000
 -0.200000  0.333333 -0.000000      4.000000
 -0.000000  0.000000  0.200000      2.000000
  0.200000 -0.000000  0.200000      4.000000
  0.400000  0.000000  0.200000      4.000000
 -0.400000  0.000000  0.200000      2.000000
  0.000000  0.333333  0.200000      2.000000
  0.200000  0.333333  0.200000      4.000000
  0.400000  0.333333  0.200000      4.000000
 -0.400000  0.333333  0.200000      4.000000
  0.000000 -0.333333  0.200000      2.000000
  0.200000 -0.333333  0.200000      4.000000
  0.400000 -0.333333  0.200000      4.000000
 -0.000000  0.000000  0.400000      2.000000
  0.200000  0.000000  0.400000      2.000000
  0.000000  0.333333  0.400000      2.000000
  0.200000  0.333333  0.400000      4.000000
  0.000000 -0.333333  0.400000      2.000000
 
 Following cartesian coordinates:
            Coordinates               Weight
  0.000000  0.000000  0.000000      1.000000
  0.055669 -0.000001 -0.034092      4.000000
  0.111339 -0.000002 -0.068184      4.000000
  0.000000  0.053569 -0.018940      2.000000
  0.055669  0.053567 -0.053032      4.000000
  0.111339  0.053566 -0.087124      4.000000
 -0.111339  0.053571  0.049244      4.000000
 -0.055669  0.053570  0.015152      4.000000
  0.055669  0.032140  0.022726      2.000000
  0.111339  0.032139 -0.011366      4.000000
  0.167008  0.032138 -0.045458      4.000000
 -0.055669  0.032142  0.090910      2.000000
  0.055669  0.085709  0.003786      2.000000
  0.111339  0.085707 -0.030306      4.000000
  0.167008  0.085706 -0.064397      4.000000
 -0.055669  0.085711  0.071970      4.000000
  0.055669 -0.021429  0.041666      2.000000
  0.111339 -0.021430  0.007574      4.000000
  0.167008 -0.021431 -0.026518      4.000000
  0.111339  0.064280  0.045452      2.000000
  0.167008  0.064279  0.011360      2.000000
  0.111339  0.117849  0.026512      2.000000
  0.167008  0.117847 -0.007580      4.000000
  0.111339  0.010711  0.064392      2.000000
 


--------------------------------------------------------------------------------------------------------




 Dimension of arrays:
   k-points           NKPTS =     24   k-points in BZ     NKDIM =     24   number of bands    NBANDS=     28
   number of dos      NEDOS =    301   number of ions     NIONS =      4
   non local maximal  LDIM  =      8   non local SUM 2l+1 LMDIM =     32
   total plane-waves  NPLWV =  14400
   max r-space proj   IRMAX =      1   max aug-charges    IRDMAX=  12752
   dimension x,y,z NGX =    20 NGY =   36 NGZ =   20
   dimension x,y,z NGXF=    40 NGYF=   72 NGZF=   40
   support grid    NGXF=    40 NGYF=   72 NGZF=   40
   ions per type =               2   2
   NGX,Y,Z   is equivalent  to a cutoff of   9.25,  9.62,  9.25 a.u.
   NGXF,Y,Z  is equivalent  to a cutoff of  18.51, 19.24, 18.51 a.u.

 SYSTEM =  "EuO"                                   
 POSCAR =  Eu1 O1 str #: 5                         

 Startparameter for this run:
   NWRITE =      2    write-flag & timer
   PREC   = normal    normal or accurate (medium, high low for compatibility)
   ISTART =      0    job   : 0-new  1-cont  2-samecut
   ICHARG =      2    charge: 1-file 2-atom 10-const
   ISPIN  =      2    spin polarized calculation?
   LNONCOLLINEAR =      F non collinear calculations
   LSORBIT =      F    spin-orbit coupling
   INIWAV =      1    electr: 0-lowe 1-rand  2-diag
   LASPH  =      F    aspherical Exc in radial PAW
   METAGGA=      F    non-selfconsistent MetaGGA calc.

 Electronic Relaxation 1
   ENCUT  =  500.0 eV  36.75 Ry    6.06 a.u.   6.55 11.35  6.55*2*pi/ulx,y,z
   ENINI  =  500.0     initial cutoff
   ENAUG  =  605.4 eV  augmentation charge cutoff
   NELM   =     60;   NELMIN=  2; NELMDL= -5     # of ELM steps 
   EDIFF  = 0.1E-05   stopping-criterion for ELM
   LREAL  =      F    real-space projection
   NLSPLINE    = F    spline interpolate recip. space projectors
   LCOMPAT=      F    compatible to vasp.4.4
   GGA_COMPAT  = T    GGA compatible to vasp.4.4-vasp.4.6
   LMAXPAW     = -100 max onsite density
   LMAXMIX     =    2 max onsite mixed and CHGCAR
   VOSKOWN=      0    Vosko Wilk Nusair interpolation
   ROPT   =    0.00000   0.00000
 Ionic relaxation
   EDIFFG = 0.1E-04   stopping-criterion for IOM
   NSW    =      0    number of steps for IOM
   NBLOCK =      1;   KBLOCK =      1    inner block; outer block 
   IBRION =     -1    ionic relax: 0-MD 1-quasi-New 2-CG
   NFREE  =      1    steps in history (QN), initial steepest desc. (CG)
   ISIF   =      2    stress and relaxation
   IWAVPR =     10    prediction:  0-non 1-charg 2-wave 3-comb
   ISYM   =      2    0-nonsym 1-usesym 2-fastsym
   LCORR  =      T    Harris-Foulkes like correction to forces

   POTIM  = 0.5000    time-step for ionic-motion
   TEIN   =    0.0    initial temperature
   TEBEG  =    0.0;   TEEND  =   0.0 temperature during run
   SMASS  =  -3.00    Nose mass-parameter (am)
   estimated Nose-frequenzy (Omega)   =  0.10E-29 period in steps =****** mass=  -0.295E-27a.u.
   SCALEE = 1.0000    scale energy and forces
   NPACO  =    256;   APACO  = 16.0  distance and # of slots for P.C.
   PSTRESS=    0.0 pullay stress

  Mass of Ions in am
   POMASS = 151.97 16.00
  Ionic Valenz
   ZVAL   =  17.00  6.00
  Atomic Wigner-Seitz radii
   RWIGS  =  -1.00 -1.00
  virtual crystal weights 
   VCA    =   1.00  1.00
   NELECT =      46.0000    total number of electrons
   NUPDOWN=      -1.0000    fix difference up-down

 DOS related values:
   EMIN   =  10.00;   EMAX   =-10.00  energy-range for DOS
   EFERMI =   0.00
   ISMEAR =     1;   SIGMA  =   0.10  broadening in eV -4-tet -1-fermi 0-gaus

 Electronic relaxation 2 (details)
   IALGO  =     38    algorithm
   LDIAG  =      T    sub-space diagonalisation (order eigenvalues)
   LSUBROT=      F    optimize rotation matrix (better conditioning)
   TURBO    =      0    0=normal 1=particle mesh
   IRESTART =      0    0=no restart 2=restart with 2 vectors
   NREBOOT  =      0    no. of reboots
   NMIN     =      0    reboot dimension
   EREF     =   0.00    reference energy to select bands
   IMIX   =      4    mixing-type and parameters
     AMIX     =   0.40;   BMIX     =  1.00
     AMIX_MAG =   1.60;   BMIX_MAG =  1.00
     AMIN     =   0.10
     WC   =   100.;   INIMIX=   1;  MIXPRE=   1;  MAXMIX= -45

 Intra band minimization:
   WEIMIN = 0.0000     energy-eigenvalue tresh-hold
   EBREAK =  0.89E-08  absolut break condition
   DEPER  =   0.30     relativ break condition  

   TIME   =   0.40     timestep for ELM

  volume/ion in A,a.u.               =      16.39       110.63
  Fermi-wavevector in a.u.,A,eV,Ry     =   1.454607  2.748810 28.788335  2.115883
  Thomas-Fermi vector in A             =   2.571738
 
 Write flags
   LWAVE        =      F    write WAVECAR
   LDOWNSAMPLE  =      F    k-point downsampling of WAVECAR
   LCHARG       =      F    write CHGCAR
   LVTOT        =      F    write LOCPOT, total local potential
   LVHAR        =      F    write LOCPOT, Hartree potential only
   LELF         =      F    write electronic localiz. function (ELF)
   LORBIT       =     11    0 simple, 1 ext, 2 COOP (PROOUT), +10 PAW based schemes


 Dipole corrections
   LMONO  =      F    monopole corrections only (constant potential shift)
   LDIPOL =      F    correct potential (dipole corrections)
   IDIPOL =      0    1-x, 2-y, 3-z, 4-all directions 
   EPSILON=  1.0000000 bulk dielectric constant

 Exchange correlation treatment:
   GGA     =    --    GGA type
   LEXCH   =     8    internal setting for exchange type
   VOSKOWN=      0    Vosko Wilk Nusair interpolation
   LHFCALC =     F    Hartree Fock is set to
   LHFONE  =     F    Hartree Fock one center treatment
   AEXX    =    0.0000 exact exchange contribution

 Linear response parameters
   LEPSILON=     F    determine dielectric tensor
   LRPA    =     F    only Hartree local field effects (RPA)
   LNABLA  =     F    use nabla operator in PAW spheres
   LVEL    =     F    velocity operator in full k-point grid
   LINTERFAST=   F  fast interpolation
   KINTER  =     0    interpolate to denser k-point grid
   CSHIFT  =0.1000    complex shift for real part using Kramers Kronig
   OMEGAMAX=  -1.0    maximum frequency
   DEG_THRESHOLD= 0.2000000E-02 threshold for treating states as degnerate
   RTIME   =   -0.100 relaxation time in fs
  (WPLASMAI=    0.000 imaginary part of plasma frequency in eV, 0.658/RTIME)
   DFIELD  = 0.0000000 0.0000000 0.0000000 field for delta impulse in time
 
 Orbital magnetization related:
   ORBITALMAG=     F  switch on orbital magnetization
   LCHIMAG   =     F  perturbation theory with respect to B field
   DQ        =  0.001000  dq finite difference perturbation B field
   LLRAUG    =     F  two centre corrections for induced B field



--------------------------------------------------------------------------------------------------------


 Static calculation
 charge density and potential will be updated during run
 spin polarized calculation
 Variant of blocked Davidson
 Davidson routine will perform the subspace rotation
 perform sub-space diagonalisation
    after iterative eigenvector-optimisation
 modified Broyden-mixing scheme, WC =      100.0
 initial mixing is a Kerker type mixing with AMIX =  0.4000 and BMIX =      1.0000
 Hartree-type preconditioning will be used
 using additional bands            5
 reciprocal scheme for non local part
 use partial core corrections
 calculate Harris-corrections to forces 
   (improved forces if not selfconsistent)
 use gradient corrections 
 use of overlap-Matrix (Vanderbilt PP)
 Methfessel and Paxton  Order N= 1 SIGMA  =   0.10


--------------------------------------------------------------------------------------------------------


  energy-cutoff  :      500.00
  volume of cell :       65.58
      direct lattice vectors                 reciprocal lattice vectors
     1.796252600 -1.037116700 -2.933334000     0.278346409 -0.000005520 -0.170459216
    -1.796269600  5.185441500 -2.933334000     0.000000000  0.160705608 -0.056819466
     1.796393000  1.037116700  2.933334000     0.278346409  0.160700088  0.113630332

  length of vectors
     3.592573285  6.222526527  3.592643486     0.326394037  0.170454522  0.340900416


 
 k-points in units of 2pi/SCALE and weight: read from INCAR                         
   0.00000000  0.00000000  0.00000000       0.013
   0.05566928 -0.00000110 -0.03409184       0.053
   0.11133856 -0.00000221 -0.06818369       0.053
   0.00000000  0.05356854 -0.01893982       0.027
   0.05566928  0.05356743 -0.05303167       0.053
   0.11133856  0.05356633 -0.08712351       0.053
  -0.11133856  0.05357074  0.04924386       0.053
  -0.05566928  0.05356964  0.01515202       0.053
   0.05566928  0.03214002  0.02272607       0.027
   0.11133856  0.03213891 -0.01136578       0.053
   0.16700785  0.03213781 -0.04545762       0.053
  -0.05566928  0.03214223  0.09090975       0.027
   0.05566928  0.08570855  0.00378624       0.027
   0.11133856  0.08570745 -0.03030560       0.053
   0.16700785  0.08570635 -0.06439744       0.053
  -0.05566928  0.08571076  0.07196993       0.053
   0.05566928 -0.02142852  0.04166589       0.027
   0.11133856 -0.02142962  0.00757404       0.053
   0.16700785 -0.02143073 -0.02651780       0.053
   0.11133856  0.06428004  0.04545213       0.027
   0.16700785  0.06427893  0.01136029       0.027
   0.11133856  0.11784857  0.02651231       0.027
   0.16700785  0.11784747 -0.00757953       0.053
   0.11133856  0.01071150  0.06439195       0.027
 
 k-points in reciprocal lattice and weights: read from INCAR                         
   0.00000000  0.00000000  0.00000000       0.013
   0.20000000 -0.00000000  0.00000000       0.053
   0.40000000 -0.00000000  0.00000000       0.053
   0.00000000  0.33333333 -0.00000000       0.027
   0.20000000  0.33333333  0.00000000       0.053
   0.40000000  0.33333333  0.00000000       0.053
  -0.40000000  0.33333333  0.00000000       0.053
  -0.20000000  0.33333333 -0.00000000       0.053
  -0.00000000  0.00000000  0.20000000       0.027
   0.20000000 -0.00000000  0.20000000       0.053
   0.40000000  0.00000000  0.20000000       0.053
  -0.40000000  0.00000000  0.20000000       0.027
   0.00000000  0.33333333  0.20000000       0.027
   0.20000000  0.33333333  0.20000000       0.053
   0.40000000  0.33333333  0.20000000       0.053
  -0.40000000  0.33333333  0.20000000       0.053
   0.00000000 -0.33333333  0.20000000       0.027
   0.20000000 -0.33333333  0.20000000       0.053
   0.40000000 -0.33333333  0.20000000       0.053
  -0.00000000  0.00000000  0.40000000       0.027
   0.20000000  0.00000000  0.40000000       0.027
   0.00000000  0.33333333  0.40000000       0.027
   0.20000000  0.33333333  0.40000000       0.053
   0.00000000 -0.33333333  0.40000000       0.027
 
 position of ions in fractional coordinates (direct lattice) 
   0.00000000  0.00000000  0.00000000
   0.50000000  0.50000000  0.00000000
   0.75000002  0.24999998  0.50000004
   0.25000002  0.74999998  0.50000004
 
 position of ions in cartesian coordinates  (Angst):
   0.00000000  0.00000000  0.00000000
  -0.00000850  2.07416240 -2.93333400
   1.79631870  1.03708110 -1.46666690
   0.00005760  4.14836020 -1.46666690
 


--------------------------------------------------------------------------------------------------------


 k-point  1 :   0.0000 0.0000 0.0000  plane waves:    1701
 k-point  2 :   0.2000-0.0000 0.0000  plane waves:    1688
 k-point  3 :   0.4000-0.0000 0.0000  plane waves:    1666
 k-point  4 :   0.0000 0.3333-0.0000  plane waves:    1678
 k-point  5 :   0.2000 0.3333 0.0000  plane waves:    1673
 k-point  6 :   0.4000 0.3333 0.0000  plane waves:    1661
 k-point  7 :  -0.4000 0.3333 0.0000  plane waves:    1658
 k-point  8 :  -0.2000 0.3333-0.0000  plane waves:    1667
 k-point  9 :  -0.0000 0.0000 0.2000  plane waves:    1659
 k-point 10 :   0.2000-0.0000 0.2000  plane waves:    1664
 k-point 11 :   0.4000 0.0000 0.2000  plane waves:    1659
 k-point 12 :  -0.4000 0.0000 0.2000  plane waves:    1663
 k-point 13 :   0.0000 0.3333 0.2000  plane waves:    1670
 k-point 14 :   0.2000 0.3333 0.2000  plane waves:    1659
 k-point 15 :   0.4000 0.3333 0.2000  plane waves:    1657
 k-point 16 :  -0.4000 0.3333 0.2000  plane waves:    1666
 k-point 17 :   0.0000-0.3333 0.2000  plane waves:    1679
 k-point 18 :   0.2000-0.3333 0.2000  plane waves:    1665
 k-point 19 :   0.4000-0.3333 0.2000  plane waves:    1658
 k-point 20 :  -0.0000 0.0000 0.4000  plane waves:    1644
 k-point 21 :   0.2000 0.0000 0.4000  plane waves:    1646
 k-point 22 :   0.0000 0.3333 0.4000  plane waves:    1659
 k-point 23 :   0.2000 0.3333 0.4000  plane waves:    1659
 k-point 24 :   0.0000-0.3333 0.4000  plane waves:    1653

 maximum and minimum number of plane-waves per node :       432      402

 maximum number of plane-waves:      1701
 maximum index in each direction: 
   IXMAX=    6   IYMAX=   11   IZMAX=    6
   IXMIN=   -6   IYMIN=  -11   IZMIN=   -6


 parallel 3D FFT for wavefunctions:
    minimum data exchange during FFTs selected (reduces bandwidth)
 parallel 3D FFT for charge:
    minimum data exchange during FFTs selected (reduces bandwidth)


 total amount of memory used by VASP MPI-rank0    42344. kBytes
=======================================================================

   base      :      30000. kBytes
   nonl-proj :       5237. kBytes
   fftplans  :        616. kBytes
   grid      :       1491. kBytes
   one-center:         98. kBytes
   wavefun   :       4902. kBytes
 
     INWAV:  cpu time    0.0000: real time    0.0001
 Broyden mixing: mesh for mixing (old mesh)
   NGX = 13   NGY = 23   NGZ = 13
  (NGX  = 40   NGY  = 72   NGZ  = 40)
  gives a total of   3887 points

 initial charge density was supplied:
 charge density of overlapping atoms calculated
 number of electron      46.0000000 magnetization       0.0000000
 keeping initial charge density in first step


--------------------------------------------------------------------------------------------------------


 Maximum index for augmentation-charges         1568 (set IRDMAX)


--------------------------------------------------------------------------------------------------------


 First call to EWALD:  gamma=   0.440
 Maximum number of real-space cells 3x 2x 4
 Maximum number of reciprocal cells 3x 4x 3

    FEWALD:  cpu time    0.0012: real time    0.0012


--------------------------------------- Iteration      1(   1)  ---------------------------------------


    POTLOK:  cpu time    0.0179: real time    0.0203
    SETDIJ:  cpu time    0.0087: real time    0.0087
     EDDAV:  cpu time    0.6200: real time    0.6336
       DOS:  cpu time    0.0018: real time    0.0018
    --------------------------------------------
      LOOP:  cpu time    0.6483: real time    0.6645

 eigenvalue-minimisations  :  3240
 total energy-change (2. order) : 0.4313129E+03  (-0.1834326E+04)
 number of electron      46.0000000 magnetization       0.0000000
 augmentation part       46.0000000 magnetization       0.0000000

 Free energy of the ion-electron system (eV)
  ---------------------------------------------------
  alpha Z        PSCENC =       453.10565554
  Ewald energy   TEWEN  =     -4853.25068260
  -Hartree energ DENC   =     -1394.95400397
  -exchange      EXHF   =         0.00000000
  -V(xc)+E(xc)   XCENC  =       227.31529699
  PAW double counting   =      5122.54265185    -5413.80328534
  entropy T*S    EENTRO =         0.00030471
  eigenvalues    EBANDS =       186.03083542
  atomic energy  EATOM  =      6104.32616516
  Solvation  Ediel_sol  =         0.00000000
  ---------------------------------------------------
  free energy    TOTEN  =       431.31293776 eV

  energy without entropy =      431.31263305  energy(sigma->0) =      431.31283619


--------------------------------------------------------------------------------------------------------




--------------------------------------- Iteration      1(   2)  ---------------------------------------


     EDDAV:  cpu time    0.7036: real time    0.7076
       DOS:  cpu time    0.0019: real time    0.0019
    --------------------------------------------
      LOOP:  cpu time    0.7055: real time    0.7094

 eigenvalue-minimisations  :  3680
 total energy-change (2. order) :-0.3796819E+03  (-0.3557172E+03)
 number of electron      46.0000000 magnetization       0.0000000
 augmentation part       46.0000000 magnetization       0.0000000

 Free energy of the ion-electron system (eV)
  ---------------------------------------------------
  alpha Z        PSCENC =       453.10565554
  Ewald energy   TEWEN  =     -4853.25068260
  -Hartree energ DENC   =     -1394.95400397
  -exchange      EXHF   =         0.00000000
  -V(xc)+E(xc)   XCENC  =       227.31529699
  PAW double counting   =      5122.54265185    -5413.80328534
  entropy T*S    EENTRO =        -0.00064716
  eigenvalues    EBANDS =      -193.65011095
  atomic energy  EATOM  =      6104.32616516
  Solvation  Ediel_sol  =         0.00000000
  ---------------------------------------------------
  free energy    TOTEN  =        51.63103952 eV

  energy without entropy =       51.63168668  energy(sigma->0) =       51.63125524


--------------------------------------------------------------------------------------------------------




--------------------------------------- Iteration      1(   3)  ---------------------------------------


     EDDAV:  cpu time    0.8544: real time    0.8568
       DOS:  cpu time    0.0023: real time    0.0023
    --------------------------------------------
      LOOP:  cpu time    0.8568: real time    0.8592

 eigenvalue-minimisations  :  4468
 total energy-change (2. order) :-0.8816526E+02  (-0.8632396E+02)
 number of electron      46.0000000 magnetization       0.0000000
 augmentation part       46.0000000 magnetization       0.0000000

 Free energy of the ion-electron system (eV)
  ---------------------------------------------------
  alpha Z        PSCENC =       453.10565554
  Ewald energy   TEWEN  =     -4853.25068260
  -Hartree energ DENC   =     -1394.95400397
  -exchange      EXHF   =         0.00000000
  -V(xc)+E(xc)   XCENC  =       227.31529699
  PAW double counting   =      5122.54265185    -5413.80328534
  entropy T*S    EENTRO =         0.00178828
  eigenvalues    EBANDS =      -281.81780687
  atomic energy  EATOM  =      6104.32616516
  Solvation  Ediel_sol  =         0.00000000
  ---------------------------------------------------
  free energy    TOTEN  =       -36.53422096 eV

  energy without entropy =      -36.53600924  energy(sigma->0) =      -36.53481705


--------------------------------------------------------------------------------------------------------




--------------------------------------- Iteration      1(   4)  ---------------------------------------


     EDDAV:  cpu time    0.8829: real time    0.8859
       DOS:  cpu time    0.0022: real time    0.0022
    --------------------------------------------
      LOOP:  cpu time    0.8851: real time    0.8881

 eigenvalue-minimisations  :  4732
 total energy-change (2. order) :-0.7631663E+01  (-0.7283383E+01)
 number of electron      46.0000000 magnetization       0.0000000
 augmentation part       46.0000000 magnetization       0.0000000

 Free energy of the ion-electron system (eV)
  ---------------------------------------------------
  alpha Z        PSCENC =       453.10565554
  Ewald energy   TEWEN  =     -4853.25068260
  -Hartree energ DENC   =     -1394.95400397
  -exchange      EXHF   =         0.00000000
  -V(xc)+E(xc)   XCENC  =       227.31529699
  PAW double counting   =      5122.54265185    -5413.80328534
  entropy T*S    EENTRO =        -0.00866629
  eigenvalues    EBANDS =      -289.43901546
  atomic energy  EATOM  =      6104.32616516
  Solvation  Ediel_sol  =         0.00000000
  ---------------------------------------------------
  free energy    TOTEN  =       -44.16588411 eV

  energy without entropy =      -44.15721783  energy(sigma->0) =      -44.16299535


--------------------------------------------------------------------------------------------------------




--------------------------------------- Iteration      1(   5)  ---------------------------------------


     EDDAV:  cpu time    0.9397: real time    0.9425
       DOS:  cpu time    0.0023: real time    0.0023
    CHARGE:  cpu time    0.0495: real time    0.0496
    MIXING:  cpu time    0.0006: real time    0.0006
    --------------------------------------------
      LOOP:  cpu time    0.9920: real time    0.9949

 eigenvalue-minimisations  :  4980
 total energy-change (2. order) :-0.8569406E+00  (-0.7959704E+00)
 number of electron      45.9999971 magnetization       0.0000000
 augmentation part        8.7003805 magnetization       0.0000000

 Broyden mixing:
  rms(total) = 0.26801E+01    rms(broyden)= 0.26799E+01
  rms(prec ) = 0.49374E+01
  weight for this iteration     100.00

 Free energy of the ion-electron system (eV)
  ---------------------------------------------------
  alpha Z        PSCENC =       453.10565554
  Ewald energy   TEWEN  =     -4853.25068260
  -Hartree energ DENC   =     -1394.95400397
  -exchange      EXHF   =         0.00000000
  -V(xc)+E(xc)   XCENC  =       227.31529699
  PAW double counting   =      5122.54265185    -5413.80328534
  entropy T*S    EENTRO =        -0.00887542
  eigenvalues    EBANDS =      -290.29574697
  atomic energy  EATOM  =      6104.32616516
  Solvation  Ediel_sol  =         0.00000000
  ---------------------------------------------------
  free energy    TOTEN  =       -45.02282476 eV

  energy without entropy =      -45.01394934  energy(sigma->0) =      -45.01986628


--------------------------------------------------------------------------------------------------------




--------------------------------------- Iteration      1(   6)  ---------------------------------------


    POTLOK:  cpu time    0.0185: real time    0.0187
    SETDIJ:  cpu time    0.0083: real time    0.0083
     EDDAV:  cpu time    0.8321: real time    0.8343
       DOS:  cpu time    0.0020: real time    0.0020
    CHARGE:  cpu time    0.0446: real time    0.0447
    MIXING:  cpu time    0.0007: real time    0.0007
    --------------------------------------------
      LOOP:  cpu time    0.9062: real time    0.9087

 eigenvalue-minimisations  :  4416
 total energy-change (2. order) :-0.4042954E+02  (-0.6664812E+02)
 number of electron      46.0000040 magnetization      -0.0000000
 augmentation part       22.4609975 magnetization      -0.0000000

 Broyden mixing:
  rms(total) = 0.10834E+02    rms(broyden)= 0.10834E+02
  rms(prec ) = 0.17669E+02
  weight for this iteration     100.00

 eigenvalues of (default mixing * dielectric matrix)
  average eigenvalue GAMMA=   0.1454
  0.1454

 Free energy of the ion-electron system (eV)
  ---------------------------------------------------
  alpha Z        PSCENC =       453.10565554
  Ewald energy   TEWEN  =     -4853.25068260
  -Hartree energ DENC   =     -1269.27221807
  -exchange      EXHF   =         0.00000000
  -V(xc)+E(xc)   XCENC  =       223.80106044
  PAW double counting   =      4939.67928706    -5175.26551594
  entropy T*S    EENTRO =         0.00525572
  eigenvalues    EBANDS =      -508.58136856
  atomic energy  EATOM  =      6104.32616516
  Solvation  Ediel_sol  =         0.00000000
  ---------------------------------------------------
  free energy    TOTEN  =       -85.45236123 eV

  energy without entropy =      -85.45761695  energy(sigma->0) =      -85.45411314


--------------------------------------------------------------------------------------------------------




--------------------------------------- Iteration      1(   7)  ---------------------------------------


    POTLOK:  cpu time    0.0176: real time    0.0178
    SETDIJ:  cpu time    0.0080: real time    0.0081
     EDDAV:  cpu time    0.8219: real time    0.8241
       DOS:  cpu time    0.0020: real time    0.0020
    CHARGE:  cpu time    0.0480: real time    0.0481
    MIXING:  cpu time    0.0006: real time    0.0006
    --------------------------------------------
      LOOP:  cpu time    0.8982: real time    0.9007

 eigenvalue-minimisations  :  4324
 total energy-change (2. order) : 0.5687498E+02  (-0.4706080E+02)
 number of electron      45.9999991 magnetization       0.0000000
 augmentation part       10.7582521 magnetization       0.0000000

 Broyden mixing:
  rms(total) = 0.26386E+01    rms(broyden)= 0.26382E+01
  rms(prec ) = 0.27108E+01
  weight for this iteration     100.00

 eigenvalues of (default mixing * dielectric matrix)
  average eigenvalue GAMMA=   0.2153
  0.2153  0.2153

 Free energy of the ion-electron system (eV)
  ---------------------------------------------------
  alpha Z        PSCENC =       453.10565554
  Ewald energy   TEWEN  =     -4853.25068260
  -Hartree energ DENC   =     -1356.43851004
  -exchange      EXHF   =         0.00000000
  -V(xc)+E(xc)   XCENC  =       224.30529331
  PAW double counting   =      5163.73408101    -5453.37573680
  entropy T*S    EENTRO =         0.00126193
  eigenvalues    EBANDS =      -310.98491218
  atomic energy  EATOM  =      6104.32616516
  Solvation  Ediel_sol  =         0.00000000
  ---------------------------------------------------
  free energy    TOTEN  =       -28.57738467 eV

  energy without entropy =      -28.57864660  energy(sigma->0) =      -28.57780531


--------------------------------------------------------------------------------------------------------




--------------------------------------- Iteration      1(   8)  ---------------------------------------


    POTLOK:  cpu time    0.0179: real time    0.0181
    SETDIJ:  cpu time    0.0082: real time    0.0082
     EDDAV:  cpu time    0.7851: real time    0.7875
       DOS:  cpu time    0.0022: real time    0.0022
    CHARGE:  cpu time    0.0596: real time    0.0597
    MIXING:  cpu time    0.0007: real time    0.0007
    --------------------------------------------
      LOOP:  cpu time    0.8736: real time    0.8764

 eigenvalue-minimisations  :  4152
 total energy-change (2. order) :-0.1229228E+02  (-0.9259838E+01)
 number of electron      45.9999985 magnetization      -0.0000000
 augmentation part       12.0517590 magnetization      -0.0000000

 Broyden mixing:
  rms(total) = 0.20604E+01    rms(broyden)= 0.20602E+01
  rms(prec ) = 0.23029E+01
  weight for this iteration     100.00

 eigenvalues of (default mixing * dielectric matrix)
  average eigenvalue GAMMA=   0.3385
  0.4054  0.4054  0.2046

 Free energy of the ion-electron system (eV)
  ---------------------------------------------------
  alpha Z        PSCENC =       453.10565554
  Ewald energy   TEWEN  =     -4853.25068260
  -Hartree energ DENC   =     -1352.71614401
  -exchange      EXHF   =         0.00000000
  -V(xc)+E(xc)   XCENC  =       225.50250935
  PAW double counting   =      5185.61079615    -5476.24424257
  entropy T*S    EENTRO =         0.00013809
  eigenvalues    EBANDS =      -327.20385619
  atomic energy  EATOM  =      6104.32616516
  Solvation  Ediel_sol  =         0.00000000
  ---------------------------------------------------
  free energy    TOTEN  =       -40.86966109 eV

  energy without entropy =      -40.86979917  energy(sigma->0) =      -40.86970711


--------------------------------------------------------------------------------------------------------




--------------------------------------- Iteration      1(   9)  ---------------------------------------


    POTLOK:  cpu time    0.0180: real time    0.0182
    SETDIJ:  cpu time    0.0081: real time    0.0082
     EDDAV:  cpu time    0.8037: real time    0.8061
       DOS:  cpu time    0.0023: real time    0.0023
    CHARGE:  cpu time    0.0475: real time    0.0477
    MIXING:  cpu time    0.0007: real time    0.0007
    --------------------------------------------
      LOOP:  cpu time    0.8804: real time    0.8832

 eigenvalue-minimisations  :  4300
 total energy-change (2. order) :-0.5857750E+00  (-0.9923282E+00)
 number of electron      45.9999984 magnetization      -0.0000000
 augmentation part       11.4198843 magnetization      -0.0000000

 Broyden mixing:
  rms(total) = 0.11793E+01    rms(broyden)= 0.11793E+01
  rms(prec ) = 0.14564E+01
  weight for this iteration     100.00

 eigenvalues of (default mixing * dielectric matrix)
  average eigenvalue GAMMA=   0.5302
  0.8045  0.2004  0.5580  0.5580

 Free energy of the ion-electron system (eV)
  ---------------------------------------------------
  alpha Z        PSCENC =       453.10565554
  Ewald energy   TEWEN  =     -4853.25068260
  -Hartree energ DENC   =     -1375.00692956
  -exchange      EXHF   =         0.00000000
  -V(xc)+E(xc)   XCENC  =       228.03444137
  PAW double counting   =      5213.64890507    -5513.18560305
  entropy T*S    EENTRO =         0.00811605
  eigenvalues    EBANDS =      -299.13550404
  atomic energy  EATOM  =      6104.32616516
  Solvation  Ediel_sol  =         0.00000000
  ---------------------------------------------------
  free energy    TOTEN  =       -41.45543605 eV

  energy without entropy =      -41.46355210  energy(sigma->0) =      -41.45814140


--------------------------------------------------------------------------------------------------------




--------------------------------------- Iteration      1(  10)  ---------------------------------------


    POTLOK:  cpu time    0.0178: real time    0.0180
    SETDIJ:  cpu time    0.0080: real time    0.0080
     EDDAV:  cpu time    0.9442: real time    0.9473
       DOS:  cpu time    0.0022: real time    0.0022
    CHARGE:  cpu time    0.0480: real time    0.0481
    MIXING:  cpu time    0.0007: real time    0.0007
    --------------------------------------------
      LOOP:  cpu time    1.0209: real time    1.0244

 eigenvalue-minimisations  :  5072
 total energy-change (2. order) :-0.2048543E+00  (-0.1815636E+00)
 number of electron      45.9999985 magnetization      -0.0000000
 augmentation part       11.1295497 magnetization      -0.0000000

 Broyden mixing:
  rms(total) = 0.78533E+00    rms(broyden)= 0.78532E+00
  rms(prec ) = 0.10801E+01
  weight for this iteration     100.00

 eigenvalues of (default mixing * dielectric matrix)
  average eigenvalue GAMMA=   0.6002
  0.8953  0.8953  0.2007  0.5047  0.5047

 Free energy of the ion-electron system (eV)
  ---------------------------------------------------
  alpha Z        PSCENC =       453.10565554
  Ewald energy   TEWEN  =     -4853.25068260
  -Hartree energ DENC   =     -1382.99369318
  -exchange      EXHF   =         0.00000000
  -V(xc)+E(xc)   XCENC  =       229.82394335
  PAW double counting   =      5232.08216124    -5539.17384652
  entropy T*S    EENTRO =         0.00356045
  eigenvalues    EBANDS =      -285.58355380
  atomic energy  EATOM  =      6104.32616516
  Solvation  Ediel_sol  =         0.00000000
  ---------------------------------------------------
  free energy    TOTEN  =       -41.66029035 eV

  energy without entropy =      -41.66385081  energy(sigma->0) =      -41.66147717


--------------------------------------------------------------------------------------------------------




--------------------------------------- Iteration      1(  11)  ---------------------------------------


    POTLOK:  cpu time    0.0176: real time    0.0178
    SETDIJ:  cpu time    0.0080: real time    0.0080
     EDDAV:  cpu time    0.9305: real time    0.9330
       DOS:  cpu time    0.0023: real time    0.0023
    CHARGE:  cpu time    0.0491: real time    0.0492
    MIXING:  cpu time    0.0008: real time    0.0008
    --------------------------------------------
      LOOP:  cpu time    1.0083: real time    1.0112

 eigenvalue-minimisations  :  5048
 total energy-change (2. order) :-0.1810648E-01  (-0.4861040E-01)
 number of electron      45.9999986 magnetization      -0.0000000
 augmentation part       11.2478533 magnetization      -0.0000000

 Broyden mixing:
  rms(total) = 0.50504E+00    rms(broyden)= 0.50504E+00
  rms(prec ) = 0.70000E+00
  weight for this iteration     100.00

 eigenvalues of (default mixing * dielectric matrix)
  average eigenvalue GAMMA=   0.8425
  1.9212  1.2441  0.2006  0.5118  0.5118  0.6653

 Free energy of the ion-electron system (eV)
  ---------------------------------------------------
  alpha Z        PSCENC =       453.10565554
  Ewald energy   TEWEN  =     -4853.25068260
  -Hartree energ DENC   =     -1382.97207747
  -exchange      EXHF   =         0.00000000
  -V(xc)+E(xc)   XCENC  =       230.78349673
  PAW double counting   =      5243.96021789    -5553.19364773
  entropy T*S    EENTRO =         0.00234721
  eigenvalues    EBANDS =      -284.43987157
  atomic energy  EATOM  =      6104.32616516
  Solvation  Ediel_sol  =         0.00000000
  ---------------------------------------------------
  free energy    TOTEN  =       -41.67839683 eV

  energy without entropy =      -41.68074404  energy(sigma->0) =      -41.67917923


--------------------------------------------------------------------------------------------------------




--------------------------------------- Iteration      1(  12)  ---------------------------------------


    POTLOK:  cpu time    0.0179: real time    0.0181
    SETDIJ:  cpu time    0.0081: real time    0.0082
     EDDAV:  cpu time    0.8008: real time    0.8027
       DOS:  cpu time    0.0023: real time    0.0023
    CHARGE:  cpu time    0.0515: real time    0.0518
    MIXING:  cpu time    0.0008: real time    0.0008
    --------------------------------------------
      LOOP:  cpu time    0.8814: real time    0.8839

 eigenvalue-minimisations  :  4192
 total energy-change (2. order) : 0.5704556E-01  (-0.9113179E-01)
 number of electron      45.9999988 magnetization      -0.0000000
 augmentation part       11.5604974 magnetization      -0.0000000

 Broyden mixing:
  rms(total) = 0.17935E+00    rms(broyden)= 0.17933E+00
  rms(prec ) = 0.24225E+00
  weight for this iteration     100.00

 eigenvalues of (default mixing * dielectric matrix)
  average eigenvalue GAMMA=   0.9639
  3.0437  1.1338  0.2006  0.5152  0.5152  0.6694  0.6694

 Free energy of the ion-electron system (eV)
  ---------------------------------------------------
  alpha Z        PSCENC =       453.10565554
  Ewald energy   TEWEN  =     -4853.25068260
  -Hartree energ DENC   =     -1379.17045657
  -exchange      EXHF   =         0.00000000
  -V(xc)+E(xc)   XCENC  =       232.28824099
  PAW double counting   =      5264.90817036    -5575.51700873
  entropy T*S    EENTRO =         0.00650283
  eigenvalues    EBANDS =      -288.31793825
  atomic energy  EATOM  =      6104.32616516
  Solvation  Ediel_sol  =         0.00000000
  ---------------------------------------------------
  free energy    TOTEN  =       -41.62135127 eV

  energy without entropy =      -41.62785410  energy(sigma->0) =      -41.62351888


--------------------------------------------------------------------------------------------------------




--------------------------------------- Iteration      1(  13)  ---------------------------------------


    POTLOK:  cpu time    0.0178: real time    0.0179
    SETDIJ:  cpu time    0.0080: real time    0.0080
     EDDAV:  cpu time    0.9405: real time    0.9432
       DOS:  cpu time    0.0023: real time    0.0023
    CHARGE:  cpu time    0.0445: real time    0.0448
    MIXING:  cpu time    0.0010: real time    0.0010
    --------------------------------------------
      LOOP:  cpu time    1.0141: real time    1.0172

 eigenvalue-minimisations  :  5072
 total energy-change (2. order) : 0.4075283E-02  (-0.1887987E-01)
 number of electron      45.9999988 magnetization      -0.0000000
 augmentation part       11.6613953 magnetization      -0.0000000

 Broyden mixing:
  rms(total) = 0.18316E+00    rms(broyden)= 0.18316E+00
  rms(prec ) = 0.24313E+00
  weight for this iteration     100.00

 eigenvalues of (default mixing * dielectric matrix)
  average eigenvalue GAMMA=   0.9453
  3.1714  1.1206  0.2006  0.5125  0.5125  0.7340  0.7340  0.5770

 Free energy of the ion-electron system (eV)
  ---------------------------------------------------
  alpha Z        PSCENC =       453.10565554
  Ewald energy   TEWEN  =     -4853.25068260
  -Hartree energ DENC   =     -1377.43129459
  -exchange      EXHF   =         0.00000000
  -V(xc)+E(xc)   XCENC  =       232.62769339
  PAW double counting   =      5269.41960349    -5579.00233537
  entropy T*S    EENTRO =         0.00834175
  eigenvalues    EBANDS =      -291.42042276
  atomic energy  EATOM  =      6104.32616516
  Solvation  Ediel_sol  =         0.00000000
  ---------------------------------------------------
  free energy    TOTEN  =       -41.61727598 eV

  energy without entropy =      -41.62561773  energy(sigma->0) =      -41.62005657


--------------------------------------------------------------------------------------------------------




--------------------------------------- Iteration      1(  14)  ---------------------------------------


    POTLOK:  cpu time    0.0183: real time    0.0185
    SETDIJ:  cpu time    0.0083: real time    0.0083
     EDDAV:  cpu time    0.7130: real time    0.7148
       DOS:  cpu time    0.0023: real time    0.0023
    CHARGE:  cpu time    0.0449: real time    0.0450
    MIXING:  cpu time    0.0010: real time    0.0010
    --------------------------------------------
      LOOP:  cpu time    0.7877: real time    0.7898

 eigenvalue-minimisations  :  3656
 total energy-change (2. order) : 0.1970686E-02  (-0.1435132E-02)
 number of electron      45.9999988 magnetization      -0.0000000
 augmentation part       11.6852008 magnetization      -0.0000000

 Broyden mixing:
  rms(total) = 0.17028E+00    rms(broyden)= 0.17028E+00
  rms(prec ) = 0.22755E+00
  weight for this iteration     100.00

 eigenvalues of (default mixing * dielectric matrix)
  average eigenvalue GAMMA=   1.0338
  3.4176  1.3001  1.3001  0.2006  0.5127  0.5127  0.7861  0.6371  0.6371

 Free energy of the ion-electron system (eV)
  ---------------------------------------------------
  alpha Z        PSCENC =       453.10565554
  Ewald energy   TEWEN  =     -4853.25068260
  -Hartree energ DENC   =     -1377.34753944
  -exchange      EXHF   =         0.00000000
  -V(xc)+E(xc)   XCENC  =       232.68583490
  PAW double counting   =      5272.75192384    -5581.65024325
  entropy T*S    EENTRO =         0.00875264
  eigenvalues    EBANDS =      -292.24517209
  atomic energy  EATOM  =      6104.32616516
  Solvation  Ediel_sol  =         0.00000000
  ---------------------------------------------------
  free energy    TOTEN  =       -41.61530530 eV

  energy without entropy =      -41.62405793  energy(sigma->0) =      -41.61822284


--------------------------------------------------------------------------------------------------------




--------------------------------------- Iteration      1(  15)  ---------------------------------------


    POTLOK:  cpu time    0.0182: real time    0.0187
    SETDIJ:  cpu time    0.0081: real time    0.0081
     EDDAV:  cpu time    0.8274: real time    0.8304
       DOS:  cpu time    0.0023: real time    0.0023
    CHARGE:  cpu time    0.0446: real time    0.0447
    MIXING:  cpu time    0.0010: real time    0.0010
    --------------------------------------------
      LOOP:  cpu time    0.9016: real time    0.9052

 eigenvalue-minimisations  :  4408
 total energy-change (2. order) : 0.9838139E-02  (-0.3509403E-02)
 number of electron      45.9999988 magnetization      -0.0000000
 augmentation part       11.7294452 magnetization      -0.0000000

 Broyden mixing:
  rms(total) = 0.13912E+00    rms(broyden)= 0.13911E+00
  rms(prec ) = 0.17639E+00
  weight for this iteration     100.00

 eigenvalues of (default mixing * dielectric matrix)
  average eigenvalue GAMMA=   1.0854
  2.9951  1.8679  1.8679  0.2006  0.5129  0.5129  0.7897  0.7897  0.7016  0.6156

 Free energy of the ion-electron system (eV)
  ---------------------------------------------------
  alpha Z        PSCENC =       453.10565554
  Ewald energy   TEWEN  =     -4853.25068260
  -Hartree energ DENC   =     -1377.33958375
  -exchange      EXHF   =         0.00000000
  -V(xc)+E(xc)   XCENC  =       232.72764099
  PAW double counting   =      5283.24947172    -5590.50108096
  entropy T*S    EENTRO =         0.00965495
  eigenvalues    EBANDS =      -293.93270821
  atomic energy  EATOM  =      6104.32616516
  Solvation  Ediel_sol  =         0.00000000
  ---------------------------------------------------
  free energy    TOTEN  =       -41.60546716 eV

  energy without entropy =      -41.61512211  energy(sigma->0) =      -41.60868548


--------------------------------------------------------------------------------------------------------




--------------------------------------- Iteration      1(  16)  ---------------------------------------


    POTLOK:  cpu time    0.0177: real time    0.0179
    SETDIJ:  cpu time    0.0081: real time    0.0081
     EDDAV:  cpu time    0.8276: real time    0.8305
       DOS:  cpu time    0.0023: real time    0.0023
    CHARGE:  cpu time    0.0460: real time    0.0461
    MIXING:  cpu time    0.0011: real time    0.0011
    --------------------------------------------
      LOOP:  cpu time    0.9027: real time    0.9060

 eigenvalue-minimisations  :  4372
 total energy-change (2. order) :-0.3171390E-03  (-0.1502331E-02)
 number of electron      45.9999987 magnetization       0.0000000
 augmentation part       11.6909714 magnetization       0.0000000

 Broyden mixing:
  rms(total) = 0.96508E-01    rms(broyden)= 0.96507E-01
  rms(prec ) = 0.11464E+00
  weight for this iteration     100.00

 eigenvalues of (default mixing * dielectric matrix)
  average eigenvalue GAMMA=   1.1069
  3.2496  2.1289  2.1289  0.2006  0.5126  0.5126  0.8204  0.8204  0.6355  0.6355
  0.5315

 Free energy of the ion-electron system (eV)
  ---------------------------------------------------
  alpha Z        PSCENC =       453.10565554
  Ewald energy   TEWEN  =     -4853.25068260
  -Hartree energ DENC   =     -1377.88945416
  -exchange      EXHF   =         0.00000000
  -V(xc)+E(xc)   XCENC  =       232.58047078
  PAW double counting   =      5285.53524443    -5593.02204323
  entropy T*S    EENTRO =         0.00955232
  eigenvalues    EBANDS =      -293.00069254
  atomic energy  EATOM  =      6104.32616516
  Solvation  Ediel_sol  =         0.00000000
  ---------------------------------------------------
  free energy    TOTEN  =       -41.60578430 eV

  energy without entropy =      -41.61533662  energy(sigma->0) =      -41.60896840


--------------------------------------------------------------------------------------------------------




--------------------------------------- Iteration      1(  17)  ---------------------------------------


    POTLOK:  cpu time    0.0180: real time    0.0182
    SETDIJ:  cpu time    0.0081: real time    0.0081
     EDDAV:  cpu time    0.9380: real time    0.9407
       DOS:  cpu time    0.0023: real time    0.0023
    CHARGE:  cpu time    0.0467: real time    0.0468
    MIXING:  cpu time    0.0011: real time    0.0011
    --------------------------------------------
      LOOP:  cpu time    1.0143: real time    1.0173

 eigenvalue-minimisations  :  5036
 total energy-change (2. order) :-0.7831088E-03  (-0.6753348E-03)
 number of electron      45.9999987 magnetization       0.0000000
 augmentation part       11.6850272 magnetization       0.0000000

 Broyden mixing:
  rms(total) = 0.59661E-01    rms(broyden)= 0.59659E-01
  rms(prec ) = 0.67555E-01
  weight for this iteration     100.00

 eigenvalues of (default mixing * dielectric matrix)
  average eigenvalue GAMMA=   1.1014
  2.5354  2.5354  2.3725  0.9773  0.9773  0.2006  0.5127  0.5127  0.6876  0.6876
  0.6086  0.6086

 Free energy of the ion-electron system (eV)
  ---------------------------------------------------
  alpha Z        PSCENC =       453.10565554
  Ewald energy   TEWEN  =     -4853.25068260
  -Hartree energ DENC   =     -1377.76168412
  -exchange      EXHF   =         0.00000000
  -V(xc)+E(xc)   XCENC  =       232.43249387
  PAW double counting   =      5286.82325477    -5594.12974147
  entropy T*S    EENTRO =         0.00960400
  eigenvalues    EBANDS =      -293.16163256
  atomic energy  EATOM  =      6104.32616516
  Solvation  Ediel_sol  =         0.00000000
  ---------------------------------------------------
  free energy    TOTEN  =       -41.60656741 eV

  energy without entropy =      -41.61617141  energy(sigma->0) =      -41.60976874


--------------------------------------------------------------------------------------------------------




--------------------------------------- Iteration      1(  18)  ---------------------------------------


    POTLOK:  cpu time    0.0178: real time    0.0180
    SETDIJ:  cpu time    0.0080: real time    0.0081
     EDDAV:  cpu time    0.9127: real time    0.9153
       DOS:  cpu time    0.0023: real time    0.0023
    CHARGE:  cpu time    0.0479: real time    0.0480
    MIXING:  cpu time    0.0012: real time    0.0012
    --------------------------------------------
      LOOP:  cpu time    0.9899: real time    0.9929

 eigenvalue-minimisations  :  4896
 total energy-change (2. order) :-0.4409894E-03  (-0.1302107E-03)
 number of electron      45.9999987 magnetization      -0.0000000
 augmentation part       11.6778822 magnetization      -0.0000000

 Broyden mixing:
  rms(total) = 0.36268E-01    rms(broyden)= 0.36268E-01
  rms(prec ) = 0.41418E-01
  weight for this iteration     100.00

 eigenvalues of (default mixing * dielectric matrix)
  average eigenvalue GAMMA=   1.0811
  2.5556  2.5556  2.5136  0.9699  0.9699  0.2006  0.5128  0.5128  0.7322  0.7322
  0.6391  0.6391  0.5207

 Free energy of the ion-electron system (eV)
  ---------------------------------------------------
  alpha Z        PSCENC =       453.10565554
  Ewald energy   TEWEN  =     -4853.25068260
  -Hartree energ DENC   =     -1377.68741220
  -exchange      EXHF   =         0.00000000
  -V(xc)+E(xc)   XCENC  =       232.34550691
  PAW double counting   =      5286.01707571    -5593.42345234
  entropy T*S    EENTRO =         0.00941903
  eigenvalues    EBANDS =      -293.04928360
  atomic energy  EATOM  =      6104.32616516
  Solvation  Ediel_sol  =         0.00000000
  ---------------------------------------------------
  free energy    TOTEN  =       -41.60700840 eV

  energy without entropy =      -41.61642742  energy(sigma->0) =      -41.61014807


--------------------------------------------------------------------------------------------------------




--------------------------------------- Iteration      1(  19)  ---------------------------------------


    POTLOK:  cpu time    0.0180: real time    0.0182
    SETDIJ:  cpu time    0.0082: real time    0.0082
     EDDAV:  cpu time    0.9446: real time    0.9470
       DOS:  cpu time    0.0023: real time    0.0023
    CHARGE:  cpu time    0.0468: real time    0.0469
    MIXING:  cpu time    0.0013: real time    0.0013
    --------------------------------------------
      LOOP:  cpu time    1.0212: real time    1.0240

 eigenvalue-minimisations  :  5056
 total energy-change (2. order) :-0.1506967E-03  (-0.4876259E-04)
 number of electron      45.9999987 magnetization      -0.0000000
 augmentation part       11.6714562 magnetization      -0.0000000

 Broyden mixing:
  rms(total) = 0.21000E-01    rms(broyden)= 0.21000E-01
  rms(prec ) = 0.24423E-01
  weight for this iteration     100.00

 eigenvalues of (default mixing * dielectric matrix)
  average eigenvalue GAMMA=   1.1126
  2.8171  2.8171  2.2123  1.1048  1.1048  0.2006  0.5127  0.5127  0.8586  0.8586
  0.7005  0.7005  0.6062  0.5694

 Free energy of the ion-electron system (eV)
  ---------------------------------------------------
  alpha Z        PSCENC =       453.10565554
  Ewald energy   TEWEN  =     -4853.25068260
  -Hartree energ DENC   =     -1377.63445078
  -exchange      EXHF   =         0.00000000
  -V(xc)+E(xc)   XCENC  =       232.28948195
  PAW double counting   =      5285.01510303    -5592.52762639
  entropy T*S    EENTRO =         0.00926955
  eigenvalues    EBANDS =      -292.94007456
  atomic energy  EATOM  =      6104.32616516
  Solvation  Ediel_sol  =         0.00000000
  ---------------------------------------------------
  free energy    TOTEN  =       -41.60715909 eV

  energy without entropy =      -41.61642864  energy(sigma->0) =      -41.61024894


--------------------------------------------------------------------------------------------------------




--------------------------------------- Iteration      1(  20)  ---------------------------------------


    POTLOK:  cpu time    0.0177: real time    0.0179
    SETDIJ:  cpu time    0.0080: real time    0.0081
     EDDAV:  cpu time    0.8446: real time    0.8469
       DOS:  cpu time    0.0021: real time    0.0021
    CHARGE:  cpu time    0.0515: real time    0.0516
    MIXING:  cpu time    0.0014: real time    0.0014
    --------------------------------------------
      LOOP:  cpu time    0.9252: real time    0.9279

 eigenvalue-minimisations  :  4536
 total energy-change (2. order) :-0.8793134E-05  (-0.7038718E-04)
 number of electron      45.9999987 magnetization       0.0000000
 augmentation part       11.6630415 magnetization       0.0000000

 Broyden mixing:
  rms(total) = 0.55276E-02    rms(broyden)= 0.55271E-02
  rms(prec ) = 0.70301E-02
  weight for this iteration     100.00

 eigenvalues of (default mixing * dielectric matrix)
  average eigenvalue GAMMA=   1.1499
  2.9495  2.9495  2.0782  2.0782  0.2006  0.5127  0.5127  0.8096  0.8096  0.9054
  0.9054  0.6813  0.6813  0.6359  0.5382

 Free energy of the ion-electron system (eV)
  ---------------------------------------------------
  alpha Z        PSCENC =       453.10565554
  Ewald energy   TEWEN  =     -4853.25068260
  -Hartree energ DENC   =     -1377.60174724
  -exchange      EXHF   =         0.00000000
  -V(xc)+E(xc)   XCENC  =       232.21203477
  PAW double counting   =      5284.00344606    -5591.61279454
  entropy T*S    EENTRO =         0.00914399
  eigenvalues    EBANDS =      -292.79838902
  atomic energy  EATOM  =      6104.32616516
  Solvation  Ediel_sol  =         0.00000000
  ---------------------------------------------------
  free energy    TOTEN  =       -41.60716789 eV

  energy without entropy =      -41.61631187  energy(sigma->0) =      -41.61021588


--------------------------------------------------------------------------------------------------------




--------------------------------------- Iteration      1(  21)  ---------------------------------------


    POTLOK:  cpu time    0.0180: real time    0.0182
    SETDIJ:  cpu time    0.0080: real time    0.0080
     EDDAV:  cpu time    0.8493: real time    0.8520
       DOS:  cpu time    0.0022: real time    0.0022
    CHARGE:  cpu time    0.0492: real time    0.0493
    MIXING:  cpu time    0.0014: real time    0.0014
    --------------------------------------------
      LOOP:  cpu time    0.9281: real time    0.9311

 eigenvalue-minimisations  :  4472
 total energy-change (2. order) :-0.1115783E-05  (-0.7157394E-05)
 number of electron      45.9999987 magnetization       0.0000000
 augmentation part       11.6625240 magnetization       0.0000000

 Broyden mixing:
  rms(total) = 0.25879E-02    rms(broyden)= 0.25878E-02
  rms(prec ) = 0.41411E-02
  weight for this iteration     100.00

 eigenvalues of (default mixing * dielectric matrix)
  average eigenvalue GAMMA=   1.1963
  2.9472  2.9472  2.5270  2.5270  1.0379  1.0379  0.2006  0.5127  0.5127  0.8190
  0.8190  0.7264  0.7264  0.6535  0.6201  0.5270

 Free energy of the ion-electron system (eV)
  ---------------------------------------------------
  alpha Z        PSCENC =       453.10565554
  Ewald energy   TEWEN  =     -4853.25068260
  -Hartree energ DENC   =     -1377.67113919
  -exchange      EXHF   =         0.00000000
  -V(xc)+E(xc)   XCENC  =       232.22289168
  PAW double counting   =      5283.95813635    -5591.56705486
  entropy T*S    EENTRO =         0.00908425
  eigenvalues    EBANDS =      -292.74022534
  atomic energy  EATOM  =      6104.32616516
  Solvation  Ediel_sol  =         0.00000000
  ---------------------------------------------------
  free energy    TOTEN  =       -41.60716900 eV

  energy without entropy =      -41.61625325  energy(sigma->0) =      -41.61019709


--------------------------------------------------------------------------------------------------------




--------------------------------------- Iteration      1(  22)  ---------------------------------------


    POTLOK:  cpu time    0.0170: real time    0.0172
    SETDIJ:  cpu time    0.0082: real time    0.0082
     EDDAV:  cpu time    0.8268: real time    0.8298
       DOS:  cpu time    0.0023: real time    0.0023
    CHARGE:  cpu time    0.0530: real time    0.0531
    MIXING:  cpu time    0.0022: real time    0.0022
    --------------------------------------------
      LOOP:  cpu time    0.9095: real time    0.9129

 eigenvalue-minimisations  :  3992
 total energy-change (2. order) : 0.1108692E-04  (-0.6113619E-05)
 number of electron      45.9999987 magnetization       0.0000000
 augmentation part       11.6600669 magnetization       0.0000000

 Broyden mixing:
  rms(total) = 0.99875E-03    rms(broyden)= 0.99803E-03
  rms(prec ) = 0.11457E-02
  weight for this iteration     100.00

 eigenvalues of (default mixing * dielectric matrix)
  average eigenvalue GAMMA=   1.1915
  2.9616  2.9616  2.8658  2.3524  1.0828  1.0828  0.2006  0.5127  0.5127  0.8180
  0.8180  0.7945  0.7945  0.6800  0.6800  0.5395  0.5985

 Free energy of the ion-electron system (eV)
  ---------------------------------------------------
  alpha Z        PSCENC =       453.10565554
  Ewald energy   TEWEN  =     -4853.25068260
  -Hartree energ DENC   =     -1377.74980691
  -exchange      EXHF   =         0.00000000
  -V(xc)+E(xc)   XCENC  =       232.22838237
  PAW double counting   =      5283.77645985    -5591.41997563
  entropy T*S    EENTRO =         0.00904427
  eigenvalues    EBANDS =      -292.63239996
  atomic energy  EATOM  =      6104.32616516
  Solvation  Ediel_sol  =         0.00000000
  ---------------------------------------------------
  free energy    TOTEN  =       -41.60715791 eV

  energy without entropy =      -41.61620219  energy(sigma->0) =      -41.61017267


--------------------------------------------------------------------------------------------------------




--------------------------------------- Iteration      1(  23)  ---------------------------------------


    POTLOK:  cpu time    0.0184: real time    0.0187
    SETDIJ:  cpu time    0.0085: real time    0.0085
     EDDAV:  cpu time    0.6676: real time    0.6698
       DOS:  cpu time    0.0022: real time    0.0022
    --------------------------------------------
      LOOP:  cpu time    0.6966: real time    0.6992

 eigenvalue-minimisations  :  3344
 total energy-change (2. order) :-0.2399520E-06  (-0.8015462E-06)
 number of electron      45.9999987 magnetization       0.0000000
 augmentation part       11.6600669 magnetization       0.0000000

 Free energy of the ion-electron system (eV)
  ---------------------------------------------------
  alpha Z        PSCENC =       453.10565554
  Ewald energy   TEWEN  =     -4853.25068260
  -Hartree energ DENC   =     -1377.76902158
  -exchange      EXHF   =         0.00000000
  -V(xc)+E(xc)   XCENC  =       232.22739139
  PAW double counting   =      5283.73218610    -5591.38868354
  entropy T*S    EENTRO =         0.00903095
  eigenvalues    EBANDS =      -292.59919957
  atomic energy  EATOM  =      6104.32616516
  Solvation  Ediel_sol  =         0.00000000
  ---------------------------------------------------
  free energy    TOTEN  =       -41.60715815 eV

  energy without entropy =      -41.61618910  energy(sigma->0) =      -41.61016847


--------------------------------------------------------------------------------------------------------




 average (electrostatic) potential at core
  the test charge radii are     1.1829  0.7215
  (the norm of the test charge is              1.0000)
       1 -37.4368       2 -37.4368       3 -71.1772       4 -71.1772
 
 
 
 E-fermi :   4.8179     XC(G=0): -11.0357     alpha+bet :-12.2018


 spin component 1

 k-point     1 :       0.0000    0.0000    0.0000
  band No.  band energies     occupation 
      1     -36.3074      1.00000
      2     -33.2530      1.00000
      3     -16.2871      1.00000
      4     -14.7755      1.00000
      5     -14.7744      1.00000
      6     -13.8526      1.00000
      7     -13.6285      1.00000
      8     -12.4750      1.00000
      9     -12.4734      1.00000
     10     -11.4721      1.00000
     11      -1.0301      1.00000
     12       0.0190      1.00000
     13       0.0191      1.00000
     14       1.1156      1.00000
     15       1.1158      1.00000
     16       1.1182      1.00000
     17       4.3865      1.00000
     18       4.5674      1.00113
     19       4.5683      1.00118
     20       4.7095      1.03174
     21       4.7572      0.92286
     22       4.8244      0.44470
     23       4.8248      0.44133
     24       5.3494     -0.00000
     25       7.0652     -0.00000
     26       7.1719     -0.00000
     27       7.1720     -0.00000
     28       7.9425      0.00000

 k-point     2 :       0.2000   -0.0000    0.0000
  band No.  band energies     occupation 
      1     -36.2826      1.00000
      2     -33.2216      1.00000
      3     -16.0247      1.00000
      4     -15.4170      1.00000
      5     -14.8429      1.00000
      6     -13.9446      1.00000
      7     -13.6790      1.00000
      8     -12.5604      1.00000
      9     -12.1989      1.00000
     10     -11.7797      1.00000
     11      -0.4861      1.00000
     12       0.1195      1.00000
     13       0.2042      1.00000
     14       0.5506      1.00000
     15       0.8864      1.00000
     16       0.9538      1.00000
     17       4.3998      1.00000
     18       4.5421      1.00034
     19       4.5583      1.00075
     20       4.6352      1.01342
     21       4.6604      1.02424
     22       4.6939      1.03543
     23       4.7828      0.77718
     24       6.4202     -0.00000
     25       6.7164     -0.00000
     26       7.5419     -0.00000
     27       8.0106      0.00000
     28       8.1675      0.00000

 k-point     3 :       0.4000   -0.0000    0.0000
  band No.  band energies     occupation 
      1     -36.2421      1.00000
      2     -33.1699      1.00000
      3     -16.0994      1.00000
      4     -15.3877      1.00000
      5     -14.9504      1.00000
      6     -14.7046      1.00000
      7     -13.3220      1.00000
      8     -12.6959      1.00000
      9     -12.5356      1.00000
     10     -11.8729      1.00000
     11      -0.1870      1.00000
     12       0.0140      1.00000
     13       0.4906      1.00000
     14       0.5199      1.00000
     15       0.7021      1.00000
     16       0.8588      1.00000
     17       4.4151      1.00000
     18       4.4938      1.00002
     19       4.5079      1.00005
     20       4.5784      1.00183
     21       4.6010      1.00447
     22       4.6522      1.02050
     23       4.7664      0.87822
     24       5.7114     -0.00000
     25       6.7935     -0.00000
     26       8.2202      0.00000
     27       8.7641      0.00000
     28       9.0203      0.00000

 k-point     4 :       0.0000    0.3333   -0.0000
  band No.  band energies     occupation 
      1     -36.3067      1.00000
      2     -33.2545      1.00000
      3     -16.0743      1.00000
      4     -14.7750      1.00000
      5     -14.7739      1.00000
      6     -14.6839      1.00000
      7     -12.8947      1.00000
      8     -12.4763      1.00000
      9     -12.4748      1.00000
     10     -11.5854      1.00000
     11      -0.6128      1.00000
     12       0.2613      1.00000
     13       0.2615      1.00000
     14       0.4163      1.00000
     15       0.8053      1.00000
     16       0.8055      1.00000
     17       4.3301      1.00000
     18       4.5492      1.00048
     19       4.5500      1.00050
     20       4.7096      1.03173
     21       4.7271      1.01275
     22       4.7849      0.76272
     23       4.7854      0.75949
     24       6.5553     -0.00000
     25       6.7279     -0.00000
     26       7.5961      0.00000
     27       7.5963      0.00000
     28       7.7153      0.00000

 k-point     5 :       0.2000    0.3333    0.0000
  band No.  band energies     occupation 
      1     -36.2821      1.00000
      2     -33.2227      1.00000
      3     -15.9097      1.00000
      4     -15.4991      1.00000
      5     -14.8436      1.00000
      6     -14.1100      1.00000
      7     -13.5779      1.00000
      8     -12.5589      1.00000
      9     -12.1846      1.00000
     10     -11.7569      1.00000
     11      -0.5067      1.00000
     12      -0.1686      1.00000
     13       0.1507      1.00000
     14       0.8883      1.00000
     15       0.9757      1.00000
     16       1.0078      1.00000
     17       4.3246      1.00000
     18       4.5465      1.00042
     19       4.5523      1.00056
     20       4.6378      1.01442
     21       4.6543      1.02142
     22       4.7227      1.01932
     23       4.7849      0.76284
     24       5.6443     -0.00000
     25       6.9921     -0.00000
     26       7.3500     -0.00000
     27       8.2492      0.00000
     28       8.3928      0.00000

 k-point     6 :       0.4000    0.3333    0.0000
  band No.  band energies     occupation 
      1     -36.2420      1.00000
      2     -33.1700      1.00000
      3     -16.2224      1.00000
      4     -15.4055      1.00000
      5     -14.9554      1.00000
      6     -14.2983      1.00000
      7     -13.4892      1.00000
      8     -12.8005      1.00000
      9     -12.6859      1.00000
     10     -11.6859      1.00000
     11      -0.7319      1.00000
     12       0.0859      1.00000
     13       0.3392      1.00000
     14       0.5716      1.00000
     15       1.1203      1.00000
     16       1.1289      1.00000
     17       4.2528      1.00000
     18       4.4922      1.00002
     19       4.5151      1.00008
     20       4.5738      1.00150
     21       4.6068      1.00550
     22       4.6978      1.03537
     23       4.7292      1.00901
     24       4.7867      0.74976
     25       7.6075      0.00000
     26       8.5067      0.00000
     27       8.6639      0.00000
     28       8.9560      0.00000

 k-point     7 :      -0.4000    0.3333    0.0000
[...]
 -4.028  -0.351  -0.000   0.000   0.000   0.000  -0.000  -0.000
  0.000  -0.000 -15.667   0.000   0.000   7.377  -0.000  -0.000
 -0.000   0.000   0.000 -15.666   0.000  -0.000   7.376  -0.000
 -0.000   0.000   0.000   0.000 -15.666  -0.000  -0.000   7.375
  0.000   0.000   7.377  -0.000  -0.000   4.936   0.000   0.000
 -0.000  -0.000  -0.000   7.376  -0.000   0.000   4.937   0.000
 -0.000  -0.000  -0.000  -0.000   7.375   0.000   0.000   4.937
  0.000  -0.000  -0.000   0.000   0.000  -0.000   0.000   0.000
  0.000   0.000  -0.000   0.000   0.000  -0.000   0.000   0.000
  0.000   0.000  -0.000  -0.000   0.000  -0.000  -0.000   0.000
  0.000   0.000   0.000  -0.000  -0.000   0.000  -0.000  -0.000
  0.000   0.000  -0.000  -0.000  -0.000  -0.000  -0.000  -0.000
 -0.000   0.000  -0.000   0.000   0.000   0.000  -0.000  -0.000
 -0.001  -0.000  -0.000   0.000   0.000   0.000  -0.000  -0.000
 -0.000  -0.000   0.000   0.000  -0.000   0.000   0.000  -0.000
 -0.000  -0.000   0.000  -0.000  -0.000  -0.000   0.000   0.000
 -0.001  -0.000   0.000  -0.000  -0.000   0.000   0.000   0.000
 -0.000   0.000   0.001  -0.003   0.000  -0.000  -0.001  -0.000
 -0.000   0.000   0.000   0.000  -0.003  -0.000  -0.000  -0.002
 -0.000   0.000   0.002   0.000   0.000   0.000  -0.000  -0.000
 -0.000   0.000  -0.000  -0.002  -0.000   0.000  -0.001   0.000
  0.000  -0.000   0.000   0.000   0.002  -0.000  -0.000   0.001
  0.000  -0.000  -0.004   0.001   0.000  -0.001  -0.000  -0.000
  0.000  -0.000   0.000   0.000   0.001  -0.000   0.000  -0.001
 -0.000   0.000   0.001  -0.003   0.000  -0.000  -0.001  -0.000
 -0.000   0.000   0.000   0.000  -0.003  -0.000  -0.000  -0.002
 -0.000   0.000   0.002   0.000   0.000   0.000  -0.000  -0.000
 -0.000   0.000  -0.000  -0.002  -0.000   0.000  -0.001   0.000
  0.000  -0.000   0.000   0.000   0.002  -0.000  -0.000   0.001
  0.000  -0.000  -0.004   0.000   0.000  -0.001  -0.000  -0.000
  0.000  -0.000   0.000   0.000   0.001  -0.000   0.000  -0.001
 pseudopotential strength for first ion, spin component:           2
-15.721   0.720   0.000  -0.000  -0.000   0.000  -0.000  -0.000
  0.720  -3.402  -0.000   0.000   0.000   0.000  -0.000  -0.000
  0.000  -0.000 -17.546   0.000   0.000   7.758  -0.001  -0.000
 -0.000   0.000   0.000 -17.545   0.000  -0.001   7.757  -0.000
 -0.000   0.000   0.000   0.000 -17.545  -0.000  -0.000   7.756
  0.000   0.000   7.758  -0.001  -0.000   5.167   0.001   0.000
 -0.000  -0.000  -0.001   7.757  -0.000   0.001   5.168   0.000
 -0.000  -0.000  -0.000  -0.000   7.756   0.000   0.000   5.168
  0.000   0.000  -0.000   0.000   0.000  -0.000   0.000   0.000
  0.000   0.000  -0.000   0.000   0.000  -0.000   0.000   0.000
  0.000   0.000  -0.000  -0.000   0.000  -0.000  -0.000   0.000
  0.000   0.000   0.000  -0.000  -0.000   0.000  -0.000  -0.000
  0.000   0.000  -0.000  -0.000  -0.000  -0.000  -0.000  -0.000
 -0.000  -0.000  -0.000   0.000   0.000   0.000  -0.000  -0.000
 -0.000  -0.000  -0.000   0.000   0.000   0.000  -0.000  -0.000
 -0.000  -0.000   0.000   0.000  -0.000   0.000   0.000  -0.000
 -0.000  -0.000   0.000  -0.000  -0.000  -0.000   0.000   0.000
 -0.001  -0.000   0.000  -0.000  -0.000   0.000   0.000   0.000
 -0.000   0.000   0.000  -0.021   0.000   0.000   0.011  -0.000
 -0.000   0.000   0.000  -0.000  -0.025  -0.000  -0.000   0.014
 -0.000   0.000   0.012   0.001  -0.000  -0.007  -0.001   0.000
 -0.000   0.000   0.000  -0.019  -0.000  -0.000   0.010   0.000
  0.000  -0.000  -0.000   0.000   0.012   0.000  -0.000  -0.007
  0.000  -0.000  -0.026   0.001   0.000   0.014  -0.001  -0.000
  0.000  -0.000  -0.000  -0.000   0.002   0.000   0.000  -0.001
 -0.000   0.000   0.000  -0.020   0.000   0.000   0.011  -0.000
 -0.000   0.000   0.000  -0.000  -0.024  -0.000  -0.000   0.013
 -0.000   0.000   0.012   0.001  -0.000  -0.007  -0.001   0.000
 -0.000   0.000   0.000  -0.018  -0.000  -0.000   0.010   0.000
  0.000  -0.000  -0.000   0.000   0.011   0.000  -0.000  -0.006
  0.000  -0.000  -0.025   0.001   0.000   0.014  -0.001  -0.000
  0.000  -0.000  -0.000  -0.000   0.002   0.000   0.000  -0.001
 total augmentation occupancy for first ion, spin component:           1
  1.992  -0.039   0.000  -0.000   0.000  -0.000   0.000   0.000   0.000   0.000   0.000  -0.000   0.000   0.000   0.000   0.000
 -0.039   0.605  -0.000   0.000   0.000   0.000   0.000  -0.000   0.000   0.001   0.000   0.000   0.001   0.000   0.000   0.000
  0.000   0.000   2.013  -0.000   0.000  -0.020   0.000   0.000   0.000   0.000   0.000   0.000   0.000   0.000   0.000   0.000
 -0.000   0.000  -0.000   2.012  -0.000   0.000  -0.020   0.000   0.000  -0.000   0.000   0.000   0.000   0.000   0.000   0.000
  0.000  -0.000   0.000  -0.000   2.012   0.000   0.000  -0.020   0.000   0.000   0.000   0.000  -0.000  -0.000   0.000   0.000
  0.000   0.000  -0.020   0.000   0.000   0.020   0.000  -0.000   0.000  -0.000   0.000   0.000   0.000   0.000   0.000   0.000
  0.000   0.000   0.000  -0.020   0.000   0.000   0.020  -0.000   0.000   0.000   0.000   0.000   0.000   0.000   0.000   0.000
 -0.000   0.000   0.000   0.000  -0.020  -0.000  -0.000   0.020   0.000  -0.000   0.000   0.000   0.000   0.000   0.000  -0.000
  0.000   0.000   0.000   0.000   0.000   0.000   0.000   0.000   0.230   0.000   0.001  -0.082   0.000   0.063   0.000   0.000
  0.000   0.001  -0.000   0.000   0.000  -0.000   0.000   0.000   0.000   0.287  -0.000   0.000  -0.082   0.000   0.084  -0.000
  0.000   0.000   0.000   0.000   0.000   0.000   0.000   0.000   0.001  -0.000   0.172   0.000  -0.001   0.000  -0.000   0.041
 -0.000   0.000   0.000   0.000  -0.000   0.000   0.000   0.000  -0.082   0.000   0.000   0.288   0.000  -0.031   0.000   0.000
  0.000   0.001   0.000  -0.000  -0.000   0.000   0.000   0.000   0.000  -0.082  -0.001   0.000   0.229   0.000  -0.031  -0.000
  0.000   0.000   0.000  -0.000   0.000   0.000   0.000   0.000   0.063   0.000   0.000  -0.031   0.000   0.018   0.000   0.000
  0.000   0.000   0.000  -0.000   0.000   0.000   0.000   0.000   0.000   0.084  -0.000   0.000  -0.031   0.000   0.026  -0.000
  0.000   0.000   0.000   0.000  -0.000  -0.000   0.000  -0.000   0.000  -0.000   0.041   0.000  -0.000   0.000  -0.000   0.011
  0.000   0.000   0.000   0.000   0.000   0.000   0.000   0.000  -0.031   0.000   0.000   0.085   0.000  -0.011   0.000   0.000
  0.000   0.000   0.000   0.000   0.000   0.000   0.000   0.000   0.000  -0.031  -0.000   0.000   0.063   0.000  -0.011  -0.000
  0.000   0.000   0.001  -0.120  -0.000  -0.000   0.082   0.000   0.000   0.000   0.000   0.000   0.000  -0.000  -0.000  -0.000
  0.000   0.000   0.000  -0.000  -0.146  -0.000  -0.000   0.101   0.000   0.000   0.000   0.000  -0.000   0.000   0.000   0.000
  0.000  -0.000   0.066   0.001  -0.000  -0.045  -0.000   0.000   0.000   0.000   0.000   0.000   0.000   0.000   0.000   0.000
  0.000   0.000  -0.000  -0.107  -0.000   0.000   0.073  -0.000   0.000   0.000  -0.000   0.000   0.000   0.000   0.000   0.000
  0.000   0.000  -0.000   0.000   0.066   0.000  -0.000  -0.045  -0.000   0.000   0.000   0.000   0.000  -0.000   0.000   0.000
  0.000   0.000  -0.147   0.001   0.000   0.101  -0.000  -0.000   0.000   0.000   0.000   0.000   0.000   0.000   0.000   0.000
  0.000   0.000  -0.000  -0.000   0.001   0.000   0.000  -0.000   0.000   0.000   0.000  -0.000   0.000   0.000   0.000   0.000
 -0.000   0.000  -0.001   0.121   0.000   0.000  -0.076  -0.000   0.000   0.000   0.000   0.000  -0.000   0.000  -0.000   0.000
  0.000  -0.000  -0.000   0.000   0.148   0.000   0.000  -0.093   0.000   0.000  -0.000   0.000   0.000   0.000   0.000   0.000
  0.000   0.000  -0.067  -0.001   0.000   0.042   0.000  -0.000   0.000   0.000   0.000   0.000  -0.000   0.000  -0.000   0.000
  0.000   0.000   0.000   0.108   0.000  -0.000  -0.068   0.000   0.000   0.000   0.000  -0.000   0.000   0.000   0.000  -0.000
  0.000   0.000   0.000  -0.000  -0.067  -0.000   0.000   0.041   0.000   0.000   0.000   0.000   0.000   0.000   0.000  -0.000
  0.000   0.000   0.149  -0.001  -0.000  -0.093   0.000   0.000   0.000   0.000  -0.000   0.000   0.000   0.000   0.000   0.000
  0.000   0.000   0.000   0.000  -0.001  -0.000   0.000   0.000   0.000   0.000  -0.000   0.000   0.000   0.000   0.000   0.000
 total augmentation occupancy for first ion, spin component:           2
 -0.042  -0.160   0.000   0.000   0.000   0.000   0.000   0.000   0.000  -0.000  -0.000   0.000  -0.000   0.000  -0.000  -0.000
 -0.160   0.130   0.000   0.000   0.000   0.000   0.000   0.000   0.000   0.004   0.002   0.000   0.006   0.000   0.001   0.001
  0.000   0.000  -0.008   0.000  -0.000  -0.044  -0.000   0.000   0.000   0.000   0.000   0.000   0.000  -0.000   0.000   0.000
  0.000   0.000   0.000  -0.007   0.000  -0.000  -0.044  -0.000   0.000   0.000   0.000   0.000   0.000   0.000   0.000   0.000
  0.000   0.000  -0.000   0.000  -0.007   0.000  -0.000  -0.044   0.000   0.000   0.000   0.000   0.000  -0.000   0.000  -0.000
 -0.000   0.000  -0.044  -0.000   0.000   0.003   0.000  -0.000   0.000   0.000   0.000   0.000   0.000   0.000   0.000  -0.000
  0.000   0.000  -0.000  -0.044  -0.000   0.000   0.003  -0.000   0.000   0.000  -0.000   0.000   0.000   0.000   0.000   0.000
 -0.000   0.000   0.000  -0.000  -0.044  -0.000  -0.000   0.003   0.000  -0.000   0.000  -0.000   0.000  -0.000   0.000   0.000
  0.000   0.000   0.000  -0.000  -0.000   0.000   0.000  -0.000   0.038   0.000   0.000  -0.004   0.000   0.010   0.000   0.000
 -0.000   0.004   0.000  -0.000  -0.000   0.000   0.000   0.000   0.000   0.040  -0.000   0.000  -0.008   0.000   0.011   0.000
 -0.000   0.002   0.000  -0.000  -0.000  -0.000  -0.000   0.000   0.000  -0.000   0.036  -0.000  -0.003   0.000   0.000   0.008
  0.000   0.000   0.000   0.000   0.000   0.000   0.000  -0.000  -0.004   0.000  -0.000   0.045   0.000  -0.002   0.000  -0.000
 -0.000   0.006   0.000  -0.000   0.000   0.000   0.000   0.000   0.000  -0.008  -0.003   0.000   0.036   0.000  -0.003  -0.001
  0.000   0.000   0.000   0.000   0.000   0.000  -0.000  -0.000   0.010   0.000   0.000  -0.002   0.000   0.003   0.000   0.000
 -0.000   0.001  -0.000   0.000  -0.000  -0.000   0.000   0.000   0.000   0.011   0.000   0.000  -0.003   0.000   0.003   0.000
 -0.000   0.001   0.000   0.000   0.000  -0.000  -0.000   0.000   0.000   0.000   0.008  -0.000  -0.001   0.000   0.000   0.002
  0.000   0.000   0.000  -0.000   0.000   0.000   0.000   0.000  -0.002   0.000  -0.000   0.013   0.000  -0.001   0.000   0.000
 -0.000   0.002   0.000   0.000   0.000   0.000   0.000  -0.000   0.000  -0.003  -0.001   0.000   0.009   0.000  -0.001  -0.000
  0.000   0.000   0.001  -0.013  -0.000  -0.002   0.025   0.000   0.000   0.000   0.000  -0.000  -0.000  -0.000  -0.000   0.000
  0.000  -0.000   0.000   0.000  -0.015  -0.000  -0.000   0.029   0.000  -0.000   0.000   0.000   0.000  -0.000   0.000   0.000
  0.000   0.000   0.008   0.001  -0.000  -0.015  -0.001   0.000   0.000   0.000   0.000   0.000  -0.000   0.000   0.000  -0.000
 -0.000   0.000   0.000  -0.011   0.000   0.000   0.021  -0.000   0.000   0.000  -0.000   0.000   0.000   0.000   0.000   0.000
  0.000   0.000  -0.000   0.000   0.007   0.000   0.000  -0.014   0.000   0.000   0.000   0.000   0.000   0.000   0.000   0.000
  0.000   0.000  -0.017   0.001   0.000   0.032  -0.002  -0.000   0.000   0.000   0.000  -0.000   0.000   0.000  -0.000   0.000
  0.000   0.000  -0.000   0.000   0.001   0.000   0.000  -0.002   0.000  -0.000   0.000   0.000  -0.000   0.000   0.000   0.000
  0.000   0.000  -0.001  -0.002   0.000   0.002  -0.011  -0.000   0.000  -0.000  -0.000   0.000  -0.000   0.000  -0.000   0.000
  0.000   0.000   0.000  -0.000  -0.003   0.000   0.000  -0.012   0.000   0.000   0.000   0.000   0.000  -0.000   0.000   0.000
  0.000  -0.000  -0.000  -0.001  -0.000   0.008   0.002  -0.000   0.000   0.000   0.000   0.000   0.000   0.000   0.000   0.000
  0.000   0.000  -0.000  -0.002  -0.000  -0.000  -0.009   0.000   0.000   0.000   0.000   0.000   0.000   0.000   0.000   0.000
  0.000  -0.000  -0.000  -0.000   0.001  -0.000  -0.000   0.006  -0.000  -0.000   0.000  -0.000   0.000   0.000   0.000   0.000
  0.000   0.000  -0.001  -0.001  -0.000  -0.016   0.002   0.000   0.000  -0.000   0.000  -0.000  -0.000   0.000  -0.000   0.000
  0.000   0.000  -0.000  -0.000  -0.001   0.000  -0.000   0.002   0.000   0.000   0.000   0.000   0.000   0.000   0.000  -0.000


------------------------ aborting loop because EDIFF is reached ----------------------------------------


 


 total charge     
 
# of ion       s       p       d       f       tot
--------------------------------------------------
    1        2.083   5.888   0.616   6.717  15.304
    2        2.083   5.888   0.616   6.717  15.304
    3        1.557   3.407   0.000   0.000   4.965
    4        1.557   3.407   0.000   0.000   4.965
--------------------------------------------------
tot          7.281  18.591   1.232  13.434  40.538

 


 magnetization (x)
 
# of ion       s       p       d       f       tot
--------------------------------------------------
    1       -0.006  -0.010   0.102   6.612   6.698
    2        0.006   0.010  -0.102  -6.612  -6.698
    3        0.000   0.000   0.000   0.000   0.000
    4        0.000   0.000   0.000   0.000   0.000
--------------------------------------------------
tot          0.000   0.000  -0.000   0.000   0.000

 
    CHARGE:  cpu time    0.0493: real time    0.0496
    FORLOC:  cpu time    0.0008: real time    0.0008
    FORNL :  cpu time    0.1992: real time    0.1998
    STRESS:  cpu time    0.2664: real time    0.2672
    FORCOR:  cpu time    0.0179: real time    0.0179
    FORHAR:  cpu time    0.0023: real time    0.0023
    MIXING:  cpu time    0.0017: real time    0.0017
    OFIELD:  cpu time    0.0000: real time    0.0000

  FORCE on cell =-STRESS in cart. coord.  units (eV):
  Direction    XX          YY          ZZ          XY          YZ          ZX
  --------------------------------------------------------------------------------------
  Alpha Z   453.10566   453.10566   453.10566
  Ewald   -1617.75261 -1617.75125 -1617.75302     0.00351     0.00252    -0.00245
  Hartree   459.29640   459.13384   459.25393    -0.01281     0.03055     0.03763
  E(xc)    -244.13682  -244.15148  -244.13898    -0.00040     0.00459     0.00077
  Local     422.47660   422.77174   422.56032     0.01080    -0.06265    -0.06460
  n-local  -224.71487  -226.44728  -228.26044    -0.53199    -0.27500    -0.89381
  augment    96.46510    96.40961    96.45187     0.00188     0.01709     0.00576
  Kinetic   648.49968   655.94961   665.59177     3.12118     0.20070     3.87214
  Fock        0.00000     0.00000     0.00000     0.00000     0.00000     0.00000
  -------------------------------------------------------------------------------------
  Total      -0.43464    -0.10117    -0.39350     0.00528    -0.11344    -0.00400
  in kB     -10.61926    -2.47192    -9.61410     0.12894    -2.77154    -0.09767
  external pressure =       -7.57 kB  Pullay stress =        0.00 kB


 VOLUME and BASIS-vectors are now :
 -----------------------------------------------------------------------------
  energy-cutoff  :      500.00
  volume of cell :       65.58
      direct lattice vectors                 reciprocal lattice vectors
     1.796252600 -1.037116700 -2.933334000     0.278346409 -0.000005520 -0.170459216
    -1.796269600  5.185441500 -2.933334000     0.000000000  0.160705608 -0.056819466
     1.796393000  1.037116700  2.933334000     0.278346409  0.160700088  0.113630332

  length of vectors
     3.592573285  6.222526527  3.592643486     0.326394037  0.170454522  0.340900416


 FORCES acting on ions
    electron-ion (+dipol)            ewald-force                    non-local-force                 convergence-correction
 -----------------------------------------------------------------------------------------------
   -.291E-05 0.196E-05 -.193E-05   0.283E-04 -.191E-04 0.187E-04   0.000E+00 -.132E-21 0.318E-21   -.491E-08 0.331E-08 -.325E-08
   -.291E-05 0.196E-05 -.193E-05   0.283E-04 -.191E-04 0.187E-04   -.159E-21 0.238E-21 0.106E-21   -.491E-08 0.331E-08 -.325E-08
   -.168E-03 0.113E-03 -.111E-03   -.283E-04 0.191E-04 -.187E-04   0.847E-21 -.635E-21 0.169E-20   -.796E-08 0.532E-08 -.525E-08
   -.168E-03 0.113E-03 -.111E-03   -.283E-04 0.191E-04 -.187E-04   0.191E-20 -.847E-21 0.127E-20   -.796E-08 0.532E-08 -.525E-08
 -----------------------------------------------------------------------------------------------
   -.343E-03 0.231E-03 -.227E-03   0.119E-13 0.187E-15 -.134E-13   0.259E-20 -.138E-20 0.339E-20   -.258E-07 0.173E-07 -.170E-07
 
 
 POSITION                                       TOTAL-FORCE (eV/Angst)
 -----------------------------------------------------------------------------------
      0.00000      0.00000      0.00000         0.000000     -0.000000      0.000000
     -0.00001      2.07416     -2.93333         0.000000     -0.000000     -0.000000
      1.79632      1.03708     -1.46667        -0.000000      0.000000      0.000000
      0.00006      4.14836     -1.46667         0.000000      0.000000      0.000000
 -----------------------------------------------------------------------------------
    total drift:                               -0.000343      0.000231     -0.000227


--------------------------------------------------------------------------------------------------------



  FREE ENERGIE OF THE ION-ELECTRON SYSTEM (eV)
  ---------------------------------------------------
  free  energy   TOTEN  =       -41.60715815 eV

  energy  without entropy=      -41.61618910  energy(sigma->0) =      -41.61016847
 


--------------------------------------------------------------------------------------------------------


    POTLOK:  cpu time    0.0264: real time    0.0264


--------------------------------------------------------------------------------------------------------


     LOOP+:  cpu time   21.2287: real time   21.3153
    4ORBIT:  cpu time    0.0000: real time    0.0000
 


 total charge     
 
# of ion       s       p       d       f       tot
--------------------------------------------------
    1        2.083   5.888   0.616   6.717  15.304
    2        2.083   5.888   0.616   6.717  15.304
    3        1.557   3.407   0.000   0.000   4.965
    4        1.557   3.407   0.000   0.000   4.965
--------------------------------------------------
tot          7.281  18.591   1.232  13.434  40.538

 


 magnetization (x)
 
# of ion       s       p       d       f       tot
--------------------------------------------------
    1       -0.006  -0.010   0.102   6.612   6.698
    2        0.006   0.010  -0.102  -6.612  -6.698
    3        0.000   0.000   0.000   0.000   0.000
    4        0.000   0.000   0.000   0.000   0.000
--------------------------------------------------
tot          0.000   0.000  -0.000   0.000   0.000

 

 total amount of memory used by VASP MPI-rank0    42344. kBytes
=======================================================================

   base      :      30000. kBytes
   nonl-proj :       5237. kBytes
   fftplans  :        616. kBytes
   grid      :       1491. kBytes
   one-center:         98. kBytes
   wavefun   :       4902. kBytes
 
  
  
 General timing and accounting informations for this job:
 ========================================================
  
                  Total CPU time used (sec):       22.412
                            User time (sec):       22.241
                          System time (sec):        0.171
                         Elapsed time (sec):       23.181
  
                   Maximum memory used (kb):       63248.
                   Average memory used (kb):           0.
  
                          Minor page faults:        19550
                          Major page faults:            0
                 Voluntary context switches:         1405
