=========================================
SLURM_JOB_ID = 51752958
SLURM_JOB_NODELIST = lnode19
SLURM_GPUS = 
SLURM_CPUS_ON_NODE = 24
SLURM_JOB_PARTITION = lenovo
SLURM_TASK_PID = 1783171
CUDA_VISIBLE_DEVICES = 
==========================================
 running on   24 total cores
 distrk:  each k-point on   24 cores,    1 groups
 distr:  one band on    4 cores,    6 groups
 using from now: INCAR     
 vasp.5.4.4.18Apr17-6-g9f103f2a35 (build Apr 28 2018 00:24:27) complex          
  
 POSCAR found type information on POSCAR  Fe
 POSCAR found :  1 types and       2 ions
 scaLAPACK will be used

 ----------------------------------------------------------------------------- 
|                                                                             |
|  ADVICE TO THIS USER RUNNING 'VASP/VAMP'   (HEAR YOUR MASTER'S VOICE ...):  |
|                                                                             |
|      You have a (more or less) 'small supercell' and for smaller cells      |
|      it is recommended  to use the reciprocal-space projection scheme!      |
|      The real space optimization is not  efficient for small cells and it   |
|      is also less accurate ...                                              |
|      Therefore set LREAL=.FALSE. in the  INCAR file                         |
|                                                                             |
 ----------------------------------------------------------------------------- 

 LDA part: xc-table for Pade appr. of Perdew
 POSCAR, INCAR and KPOINTS ok, starting setup
 FFT: planning ...
 WAVECAR not read
 entering main loop
       N       E                     dE             d eps       ncg     rms          rms(c)
DAV:   1     0.229130291673E+03    0.22913E+03   -0.19823E+04  3504   0.211E+03
DAV:   2    -0.965208852206E+01   -0.23878E+03   -0.22906E+03  3408   0.423E+02
DAV:   3    -0.162190896111E+02   -0.65670E+01   -0.65549E+01  3744   0.782E+01
DAV:   4    -0.162734115520E+02   -0.54322E-01   -0.54324E-01  3864   0.670E+00
DAV:   5    -0.162744279185E+02   -0.10164E-02   -0.10164E-02  3720   0.861E-01    0.250E+01
DAV:   6    -0.164558002870E+02   -0.18137E+00   -0.74946E+00  3420   0.397E+01    0.691E+00
DAV:   7    -0.165122853041E+02   -0.56485E-01   -0.61550E-01  3408   0.976E+00    0.431E+00
DAV:   8    -0.165223344046E+02   -0.10049E-01   -0.15167E-02  3732   0.148E+00    0.137E+00
DAV:   9    -0.165141535030E+02    0.81809E-02   -0.51920E-03  3660   0.881E-01    0.337E-01
DAV:  10    -0.165139835733E+02    0.16993E-03   -0.22560E-03  3456   0.615E-01    0.443E-02
DAV:  11    -0.165140428685E+02   -0.59295E-04   -0.48925E-05  3660   0.657E-02    0.243E-02
DAV:  12    -0.165140511513E+02   -0.82828E-05   -0.50029E-06  3792   0.227E-02    0.960E-03
DAV:  13    -0.165140443975E+02    0.67538E-05   -0.13482E-06  3552   0.116E-02    0.255E-03
DAV:  14    -0.165140427784E+02    0.16191E-05   -0.16029E-07  2796   0.337E-03    0.623E-04
DAV:  15    -0.165140427562E+02    0.22180E-07   -0.11761E-08  1788   0.113E-03
   1 F= -.16514043E+02 E0= -.16514043E+02  d E =0.000000E+00  mag=     4.4055
