=========================================
SLURM_JOB_ID = 38092318
SLURM_JOB_NODELIST = lnode12
SLURM_GPUS = 
SLURM_CPUS_ON_NODE = 8
SLURM_JOB_PARTITION = lenovo
SLURM_TASK_PID = 2044654
CUDA_VISIBLE_DEVICES = 
==========================================
 running on    8 total cores
 distrk:  each k-point on    8 cores,    1 groups
 distr:  one band on    4 cores,    2 groups
 using from now: INCAR     
 vasp.5.4.4.18Apr17-6-g9f103f2a35 (build Apr 28 2018 00:24:27) complex          
  
 POSCAR found type information on POSCAR  Eu S 
 POSCAR found :  2 types and       8 ions
 scaLAPACK will be used

 ----------------------------------------------------------------------------- 
|                                                                             |
|  ADVICE TO THIS USER RUNNING 'VASP/VAMP'   (HEAR YOUR MASTER'S VOICE ...):  |
|                                                                             |
|      You have a (more or less) 'small supercell' and for smaller cells      |
|      it is recommended  to use the reciprocal-space projection scheme!      |
|      The real space optimization is not  efficient for small cells and it   |
|      is also less accurate ...                                              |
|      Therefore set LREAL=.FALSE. in the  INCAR file                         |
|                                                                             |
 ----------------------------------------------------------------------------- 

 LDA part: xc-table for Pade appr. of Perdew
 POSCAR, INCAR and KPOINTS ok, starting setup
 FFT: planning ...
 WAVECAR not read
 entering main loop
       N       E                     dE             d eps       ncg     rms          rms(c)
DAV:   1     0.117273358668E+04    0.11727E+04   -0.31376E+04 36784   0.314E+03
DAV:   2     0.305655409826E+03   -0.86708E+03   -0.79133E+03 44568   0.635E+02
DAV:   3    -0.123300935701E+02   -0.31799E+03   -0.31087E+03 49552   0.334E+02
DAV:   4    -0.594739455055E+02   -0.47144E+02   -0.46137E+02 58416   0.126E+02
DAV:   5    -0.638597807670E+02   -0.43858E+01   -0.41930E+01 64768   0.401E+01    0.275E+01
RMM:   6    -0.801429448950E+02   -0.16283E+02   -0.95835E+01 43612   0.758E+01    0.431E+01
RMM:   7    -0.767510317372E+02    0.33919E+01   -0.19310E+01 39168   0.408E+01    0.152E+01
RMM:   8    -0.746957139206E+02    0.20553E+01   -0.10895E+01 42803   0.267E+01    0.569E+00
RMM:   9    -0.751118579306E+02   -0.41614E+00   -0.59918E+00 44506   0.180E+01    0.774E+00
RMM:  10    -0.750126627261E+02    0.99195E-01   -0.11033E+00 49795   0.791E+00    0.725E+00
RMM:  11    -0.748018668688E+02    0.21080E+00   -0.66964E-01 51359   0.520E+00    0.286E+00
RMM:  12    -0.749683522320E+02   -0.16649E+00   -0.46317E-01 48137   0.450E+00    0.276E+00
RMM:  13    -0.749363397933E+02    0.32012E-01   -0.12415E-01 50914   0.257E+00    0.222E+00
RMM:  14    -0.749065836270E+02    0.29756E-01   -0.10769E-01 51838   0.187E+00    0.145E+00
RMM:  15    -0.748967743302E+02    0.98093E-02   -0.69987E-02 55013   0.141E+00    0.732E-01
RMM:  16    -0.748991707137E+02   -0.23964E-02   -0.43926E-02 55807   0.794E-01    0.311E-01
RMM:  17    -0.749013990065E+02   -0.22283E-02   -0.27748E-02 53913   0.833E-01    0.241E-01
RMM:  18    -0.749030543632E+02   -0.16554E-02   -0.19184E-02 47828   0.504E-01    0.118E-01
RMM:  19    -0.749041796344E+02   -0.11253E-02   -0.12516E-02 44206   0.423E-01    0.694E-02
WARNING in EDDRMM: call to ZHEGV failed, returncode =   8  4     16
RMM:  20    -0.749051655071E+02   -0.98587E-03   -0.99681E-03 41592   0.359E-01    0.938E-02
RMM:  21    -0.749058599398E+02   -0.69443E-03   -0.71282E-03 40008   0.343E-01    0.970E-02
RMM:  22    -0.749063943102E+02   -0.53437E-03   -0.57600E-03 36550   0.323E-01    0.832E-02
WARNING in EDDRMM: call to ZHEGV failed, returncode =   6  3     13
RMM:  23    -0.749067871071E+02   -0.39280E-03   -0.44742E-03 37371   0.324E-01    0.722E-02
RMM:  24    -0.749071195246E+02   -0.33242E-03   -0.35808E-03 34159   0.309E-01    0.584E-02
RMM:  25    -0.749073893562E+02   -0.26983E-03   -0.28419E-03 34773   0.287E-01    0.810E-02
RMM:  26    -0.749076024418E+02   -0.21309E-03   -0.23134E-03 32127   0.255E-01    0.749E-02
RMM:  27    -0.749077514695E+02   -0.14903E-03   -0.17003E-03 31319   0.243E-01    0.291E-02
RMM:  28    -0.749078854726E+02   -0.13400E-03   -0.14440E-03 30864   0.241E-01    0.152E-02
RMM:  29    -0.749079855186E+02   -0.10005E-03   -0.10958E-03 30023   0.231E-01    0.181E-02
RMM:  30    -0.749080718191E+02   -0.86300E-04   -0.94508E-04 29624   0.227E-01
   1 F= -.74908072E+02 E0= -.74907886E+02  d E =-.749081E+02  mag=     0.0003
 curvature:   0.00 expect dE= 0.000E+00 dE for cont linesearch  0.000E+00
 trial: gam= 0.00000 g(F)=  0.142E-07 g(S)=  0.113E-04 ort = 0.000E+00 (trialstep = 0.100E+01)
 search vector abs. value=  0.114E-04
 reached required accuracy - stopping structural energy minimisation
