=========================================
SLURM_JOB_ID = 63601885
SLURM_JOB_NODELIST = lnode30
SLURM_GPUS = 
SLURM_CPUS_ON_NODE = 8
SLURM_JOB_PARTITION = lenovo
SLURM_TASK_PID = 2043445
CUDA_VISIBLE_DEVICES = 
==========================================
 running on    8 total cores
 distrk:  each k-point on    8 cores,    1 groups
 distr:  one band on    4 cores,    2 groups
 using from now: INCAR     
 vasp.5.4.4.18Apr17-6-g9f103f2a35 (build Apr 28 2018 00:24:27) complex          
  
 POSCAR found type information on POSCAR  Ni
 POSCAR found :  1 types and       4 ions
 scaLAPACK will be used
 LDA part: xc-table for Pade appr. of Perdew
 POSCAR, INCAR and KPOINTS ok, starting setup
 FFT: planning ...
 WAVECAR not read
 entering main loop
       N       E                     dE             d eps       ncg     rms          rms(c)
DAV:   1     0.757127877728E+03    0.75713E+03   -0.34597E+04  4360   0.162E+03
DAV:   2     0.234695242237E+02   -0.73366E+03   -0.69243E+03  3936   0.522E+02
DAV:   3    -0.173229088109E+02   -0.40792E+02   -0.39476E+02  4256   0.141E+02
DAV:   4    -0.179078506962E+02   -0.58494E+00   -0.58428E+00  4232   0.172E+01
DAV:   5    -0.179195133502E+02   -0.11663E-01   -0.11662E-01  4320   0.234E+00    0.547E+01
DAV:   6    -0.281915242085E+02   -0.10272E+02   -0.33695E+01  4208   0.688E+01    0.226E+01
DAV:   7    -0.252127794907E+02    0.29787E+01   -0.12161E+01  4160   0.400E+01    0.352E+00
DAV:   8    -0.251285231487E+02    0.84256E-01   -0.19614E-01  4344   0.501E+00    0.134E+00
DAV:   9    -0.251260850816E+02    0.24381E-02   -0.74937E-03  4272   0.514E-01    0.608E-01
DAV:  10    -0.251231096939E+02    0.29754E-02   -0.68775E-04  4688   0.241E-01    0.190E-01
DAV:  11    -0.251229357239E+02    0.17397E-03   -0.42326E-04  4208   0.172E-01    0.836E-02
DAV:  12    -0.251229549822E+02   -0.19258E-04   -0.32340E-05  4208   0.434E-02    0.472E-02
DAV:  13    -0.251229589896E+02   -0.40074E-05   -0.36871E-06  3832   0.183E-02    0.106E-02
DAV:  14    -0.251229588522E+02    0.13735E-06   -0.73700E-07  2464   0.764E-03
   1 F= -.25122959E+02 E0= -.25054538E+02  d E =-.136841E+00  mag=     2.3652
 writing wavefunctions
