       N       E                     dE             d eps       ncg     rms          rms(c)
DAV:   1     0.232169314191E+03    0.23217E+03   -0.20628E+04  3480   0.221E+03
DAV:   2    -0.953761912818E+01   -0.24171E+03   -0.23215E+03  3432   0.431E+02
DAV:   3    -0.162170853477E+02   -0.66795E+01   -0.66678E+01  3720   0.791E+01
DAV:   4    -0.162729620025E+02   -0.55877E-01   -0.55882E-01  3816   0.687E+00
DAV:   5    -0.162740054406E+02   -0.10434E-02   -0.10435E-02  3732   0.874E-01    0.250E+01
DAV:   6    -0.164577146168E+02   -0.18371E+00   -0.74928E+00  3420   0.397E+01    0.691E+00
DAV:   7    -0.165123249316E+02   -0.54610E-01   -0.61467E-01  3408   0.975E+00    0.431E+00
DAV:   8    -0.165220238016E+02   -0.96989E-02   -0.15102E-02  3720   0.148E+00    0.137E+00
DAV:   9    -0.165137386966E+02    0.82851E-02   -0.52196E-03  3696   0.883E-01    0.337E-01
DAV:  10    -0.165135393218E+02    0.19937E-03   -0.22371E-03  3444   0.613E-01    0.442E-02
DAV:  11    -0.165135992336E+02   -0.59912E-04   -0.50053E-05  3576   0.660E-02    0.242E-02
DAV:  12    -0.165136074074E+02   -0.81738E-05   -0.50094E-06  3876   0.227E-02    0.956E-03
DAV:  13    -0.165136006686E+02    0.67388E-05   -0.12990E-06  3540   0.113E-02    0.250E-03
DAV:  14    -0.165135990955E+02    0.15731E-05   -0.15646E-07  2688   0.330E-03    0.657E-04
DAV:  15    -0.165135991066E+02   -0.11087E-07   -0.11152E-08  1752   0.109E-03
   1 F= -.16513599E+02 E0= -.16513599E+02  d E =0.000000E+00  mag=     4.4055
