=========================================
SLURM_JOB_ID = 30554661
SLURM_JOB_NODELIST = lnode32
SLURM_GPUS = 
SLURM_CPUS_ON_NODE = 8
SLURM_JOB_PARTITION = lenovo
SLURM_TASK_PID = 3409610
CUDA_VISIBLE_DEVICES = 
==========================================
 running on    8 total cores
 distrk:  each k-point on    8 cores,    1 groups
 distr:  one band on    1 cores,    8 groups
 using from now: INCAR     
 vasp.5.4.4.18Apr17-6-g9f103f2a35 (build Apr 28 2018 00:24:27) complex          
  
 POSCAR found type information on POSCAR  Ni
 POSCAR found :  1 types and       4 ions
 scaLAPACK will be used

 ----------------------------------------------------------------------------- 
|                                                                             |
|           W    W    AA    RRRRR   N    N  II  N    N   GGGG   !!!           |
|           W    W   A  A   R    R  NN   N  II  NN   N  G    G  !!!           |
|           W    W  A    A  R    R  N N  N  II  N N  N  G       !!!           |
|           W WW W  AAAAAA  RRRRR   N  N N  II  N  N N  G  GGG   !            |
|           WW  WW  A    A  R   R   N   NN  II  N   NN  G    G                |
|           W    W  A    A  R    R  N    N  II  N    N   GGGG   !!!           |
|                                                                             |
|      For optimal performance we recommend to set                            |
|        NCORE= 4 - approx SQRT( number of cores)                             |
|      NCORE specifies how many cores store one orbital (NPAR=cpu/NCORE).     |
|      This setting can  greatly improve the performance of VASP for DFT.     |
|      The default,   NCORE=1            might be grossly inefficient         |
|      on modern multi-core architectures or massively parallel machines.     |
|      Do your own testing !!!!                                               |
|      Unfortunately you need to use the default for GW and RPA calculations. |
|      (for HF NCORE is supported but not extensively tested yet)             |
|                                                                             |
 ----------------------------------------------------------------------------- 

 LDA part: xc-table for Pade appr. of Perdew
 POSCAR, INCAR and KPOINTS ok, starting setup
 FFT: planning ...
 WAVECAR not read
 entering main loop
       N       E                     dE             d eps       ncg     rms          rms(c)
DAV:   1     0.250804802576E+03    0.25080E+03   -0.18564E+04 12272   0.240E+03
DAV:   2    -0.115386595780E+02   -0.26234E+03   -0.25715E+03 12528   0.399E+02
DAV:   3    -0.253892947709E+02   -0.13851E+02   -0.13465E+02 12720   0.127E+02
DAV:   4    -0.256608892538E+02   -0.27159E+00   -0.26844E+00 13496   0.167E+01
DAV:   5    -0.256677505410E+02   -0.68613E-02   -0.68603E-02 14872   0.218E+00    0.203E+01
DAV:   6    -0.229363490525E+02    0.27314E+01   -0.46965E+01 12112   0.101E+02    0.120E+01
DAV:   7    -0.217003129135E+02    0.12360E+01   -0.82818E+00 12112   0.421E+01    0.368E+00
DAV:   8    -0.216655446815E+02    0.34768E-01   -0.15717E-01 16224   0.534E+00    0.160E+00
DAV:   9    -0.216633330600E+02    0.22116E-02   -0.36650E-02 14200   0.219E+00    0.631E-01
DAV:  10    -0.216636748443E+02   -0.34178E-03   -0.30417E-02 23344   0.250E+00    0.255E-01
DAV:  11    -0.216644998703E+02   -0.82503E-03   -0.28846E-03 17512   0.633E-01    0.213E-01
DAV:  12    -0.216648958342E+02   -0.39596E-03   -0.43600E-03 19616   0.107E+00    0.121E-01
DAV:  13    -0.216650015602E+02   -0.10573E-03   -0.15936E-03 21744   0.614E-01    0.337E-02
DAV:  14    -0.216650391180E+02   -0.37558E-04   -0.15757E-04 18368   0.162E-01    0.217E-02
DAV:  15    -0.216650540918E+02   -0.14974E-04   -0.15827E-04 22080   0.188E-01    0.120E-02
DAV:  16    -0.216650597294E+02   -0.56376E-05   -0.10574E-04 21776   0.158E-01    0.256E-03
DAV:  17    -0.216650616500E+02   -0.19207E-05   -0.40482E-06  9944   0.364E-02    0.343E-03
DAV:  18    -0.216650620579E+02   -0.40786E-06   -0.86236E-06  6496   0.526E-02
   1 F= -.21665062E+02 E0= -.21648627E+02  d E =-.493053E-01  mag=    -0.0000
