 vasp.5.4.4.18Apr17-6-g9f103f2a35 (build Apr 28 2018 00:24:27) complex          
  
 executed on             LinuxIFC date 2021.03.19  19:37:15
 running on    8 total cores
 distrk:  each k-point on    8 cores,    1 groups
 distr:  one band on NCORES_PER_BAND=   1 cores,    8 groups


--------------------------------------------------------------------------------------------------------


 INCAR:
 POTCAR:    PAW_PBE Ni 02Aug2007                  

 ----------------------------------------------------------------------------- 
|                                                                             |
|           W    W    AA    RRRRR   N    N  II  N    N   GGGG   !!!           |
|           W    W   A  A   R    R  NN   N  II  NN   N  G    G  !!!           |
|           W    W  A    A  R    R  N N  N  II  N N  N  G       !!!           |
|           W WW W  AAAAAA  RRRRR   N  N N  II  N  N N  G  GGG   !            |
|           WW  WW  A    A  R   R   N   NN  II  N   NN  G    G                |
|           W    W  A    A  R    R  N    N  II  N    N   GGGG   !!!           |
|                                                                             |
|      For optimal performance we recommend to set                            |
|        NCORE= 4 - approx SQRT( number of cores)                             |
|      NCORE specifies how many cores store one orbital (NPAR=cpu/NCORE).     |
|      This setting can  greatly improve the performance of VASP for DFT.     |
|      The default,   NCORE=1            might be grossly inefficient         |
|      on modern multi-core architectures or massively parallel machines.     |
|      Do your own testing !!!!                                               |
|      Unfortunately you need to use the default for GW and RPA calculations. |
|      (for HF NCORE is supported but not extensively tested yet)             |
|                                                                             |
 ----------------------------------------------------------------------------- 

 POTCAR:    PAW_PBE Ni 02Aug2007                  
   SHA256 =  0534bc51ca8003dfef23f56753fef9fdd3e22eac8d719fccacb59f3e6b7a69c7 Ni
   COPYR  = (c) Copyright 02Aug2007 Georg Kresse                                
   COPYR  = This file is part of the software VASP. Any use, copying, and all ot
   COPYR  = If you do not have a valid VASP license, you may not use, copy or di
   VRHFIN =Ni:                                                                  
   LEXCH  = PE                                                                  
   EATOM  =  1077.6739 eV,   79.2068 Ry                                         
                                                                                
   TITEL  = PAW_PBE Ni 02Aug2007                                                
   LULTRA =        F    use ultrasoft PP ?                                      
   IUNSCR =        1    unscreen: 0-lin 1-nonlin 2-no                           
   RPACOR =    2.000    partial core radius                                     
   POMASS =   58.690; ZVAL   =   10.000    mass and valenz                      
   RCORE  =    2.300    outmost cutoff radius                                   
   RWIGS  =    2.430; RWIGS  =    1.286    wigner-seitz radius (au A)           
   ENMAX  =  269.532; ENMIN  =  202.149 eV                                      
   RCLOC  =    1.201    cutoff for local pot                                    
   LCOR   =        T    correct aug charges                                     
   LPAW   =        T    paw PP                                                  
   EAUG   =  544.565                                                            
   DEXC   =    0.000                                                            
   RMAX   =    2.357    core radius for proj-oper                               
   RAUG   =    1.300    factor for augmentation sphere                          
   RDEP   =    2.390    radius for radial grids                                 
   RDEPT  =    1.838    core radius for aug-charge                              
                                                                                
   Atomic configuration                                                         
    9 entries                                                                   
     n  l   j            E        occ.                                          
     1  0  0.50     -8206.4253   2.0000                                         
     2  0  0.50      -976.1748   2.0000                                         
     2  1  1.50      -839.0571   6.0000                                         
     3  0  0.50      -105.9991   2.0000                                         
     3  1  1.50       -66.4603   6.0000                                         
     3  2  2.50        -4.6458   9.0000                                         
     4  0  0.50        -4.4926   1.0000                                         
     4  1  1.50        -4.0817   0.0000                                         
     4  3  2.50        -1.3606   0.0000                                         
   Description                                                                  
     l       E           TYP  RCUT    TYP  RCUT                                 
     2     -4.6457903     23  2.300                                             
     2     -6.0063729     23  2.300                                             
     0     -4.4925590     23  2.300                                             
     0      5.0102601     23  2.300                                             
     1     -2.7211652     23  2.300                                             
     1     16.5183231     23  2.300                                             
  local pseudopotential read in
  partial core-charges read in
  partial kinetic energy density read in
  atomic valenz-charges read in
  non local Contribution for L=           2  read in
    real space projection operators read in
  non local Contribution for L=           2  read in
    real space projection operators read in
  non local Contribution for L=           0  read in
    real space projection operators read in
  non local Contribution for L=           0  read in
    real space projection operators read in
  non local Contribution for L=           1  read in
    real space projection operators read in
  non local Contribution for L=           1  read in
    real space projection operators read in
    PAW grid and wavefunctions read in
 
   number of l-projection  operators is LMAX  =           6
   number of lm-projection operators is LMMAX =          18
 
  PAW_PBE Ni 02Aug2007                  :
 energy of atom  1       EATOM=-1077.6739
 kinetic energy error for atom=    0.0030 (will be added to EATOM!!)
 
 
 POSCAR: Ni1 str #: 7                            
  positions in direct lattice
  No initial velocities read in
 exchange correlation table for  LEXCH =        8
   RHO(1)=    0.500       N(1)  =     2000
   RHO(2)=  100.500       N(2)  =     4000
 


--------------------------------------------------------------------------------------------------------


 ion  position               nearest neighbor table
   1  0.000  0.000  0.000-   2 2.48   4 2.48   2 2.48   4 2.48   3 2.48   3 2.48   3 2.48   3 2.48
                             4 2.48   2 2.48   4 2.48   2 2.48
   2  0.750  0.500  0.250-   3 2.48   1 2.48   1 2.48   3 2.48   4 2.48   4 2.48   4 2.48   4 2.48
                             3 2.48   1 2.48   1 2.48   3 2.48
   3  0.500  0.000  0.500-   4 2.48   2 2.48   2 2.48   4 2.48   1 2.48   1 2.48   1 2.48   1 2.48
                             2 2.48   4 2.48   2 2.48   4 2.48
   4  0.250  0.500  0.750-   1 2.48   3 2.48   1 2.48   3 2.48   2 2.48   2 2.48   2 2.48   2 2.48
                             3 2.48   1 2.48   3 2.48   1 2.48
 
  LATTYP: Found a body centered tetragonal cell.
 ALAT       =     3.5025828348
 C/A-ratio  =     2.0000000000
  
  Lattice vectors:
  
 A1 = (   3.7150501000,   0.7149617300,   2.0222171000)
 A2 = (   1.2383501000,  -3.5748086700,   2.0222171000)
 A3 = (  -1.2383500000,   0.7149617400,  -4.0444342000)


Analysis of symmetry for initial positions (statically):
=====================================================================
 Subroutine PRICEL returns following result:
 
  LATTYP: Found a face centered cubic cell.
 ALAT       =     3.5025827606
  
  Lattice vectors:
  
 A1 = (   1.2383500000,   0.7149617300,   2.0222171000)
 A2 = (  -1.2383501000,   0.7149617300,   2.0222171000)
 A3 = (   0.0000000000,  -1.4299234700,   2.0222171000)
 
   4 primitive cells build up your supercell.
 

 Routine SETGRP: Setting up the symmetry group for a 
 body centered tetragonal supercell.


 Subroutine GETGRP returns: Found 16 space group operations
 (whereof 16 operations were pure point group operations)
 out of a pool of 16 trial point group operations.


The static configuration has the point symmetry D_4h.


Analysis of symmetry for dynamics (positions and initial velocities):
=====================================================================
 Subroutine PRICEL returns following result:
 
  LATTYP: Found a face centered cubic cell.
 ALAT       =     3.5025827606
  
  Lattice vectors:
  
 A1 = (   1.2383500000,   0.7149617300,   2.0222171000)
 A2 = (  -1.2383501000,   0.7149617300,   2.0222171000)
 A3 = (   0.0000000000,  -1.4299234700,   2.0222171000)
 
   4 primitive cells build up your supercell.
 

 Routine SETGRP: Setting up the symmetry group for a 
 body centered tetragonal supercell.


 Subroutine GETGRP returns: Found 16 space group operations
 (whereof 16 operations were pure point group operations)
 out of a pool of 16 trial point group operations.


The dynamic configuration has the point symmetry D_4h.


Analysis of structural, dynamic, and magnetic symmetry:
=====================================================================
 Subroutine PRICEL returns following result:
 
  LATTYP: Found a simple tetragonal cell.
 ALAT       =     2.4767000714
 C/A-ratio  =     1.4142135640
  
  Lattice vectors:
  
 A1 = (   1.2383500000,   2.1448852000,   0.0000000000)
 A2 = (   1.2383501000,  -0.7149617300,  -2.0222171000)
 A3 = (  -2.4767001000,   1.4299234700,  -2.0222171000)
 
   2 primitive cells build up your supercell.
 

 Routine SETGRP: Setting up the symmetry group for a 
 body centered tetragonal supercell.


 Subroutine GETGRP returns: Found 16 space group operations
 (whereof  8 operations were pure point group operations)
 out of a pool of 16 trial point group operations.


The magnetic configuration has the point symmetry D_2d.
 The point group associated with its full space group is D_4h.


 Subroutine INISYM returns: Found 16 space group operations
 (whereof  8 operations are pure point group operations),
 and found     2 'primitive' translations

 
 
 KPOINTS: k-points                                

Automatic generation of k-mesh.
Space group operators:
 irot       det(A)        alpha          n_x          n_y          n_z        tau_x        tau_y        tau_z
    1     1.000000     0.000001     1.000000     0.000000     0.000000     0.000000     0.000000     0.000000
    2    -1.000000    90.000000    -0.707107     0.408248    -0.577350     0.000000     0.000000     0.000000
    3     1.000000   180.000000     0.707107    -0.408248     0.577350     0.000000     0.000000     0.000000
    4    -1.000000    90.000000     0.707107    -0.408248     0.577350     0.000000     0.000000     0.000000
    5    -1.000000   180.000000     0.707107     0.408248    -0.577350     0.000000     0.000000     0.000000
    6     1.000000   179.999999    -0.500000     0.288675     0.816497     0.000000     0.000000     0.000000
    7    -1.000000   180.000000    -0.000000     0.816497     0.577350     0.000000     0.000000     0.000000
    8     1.000000   179.999999     0.500000     0.866025     0.000000     0.000000     0.000000     0.000000
    9    -1.000000     0.000001     1.000000     0.000000     0.000000    -0.250000    -0.500000     0.250000
   10     1.000000    90.000000    -0.707107     0.408248    -0.577350    -0.250000    -0.500000     0.250000
   11    -1.000000   180.000000     0.707107    -0.408248     0.577350    -0.250000    -0.500000     0.250000
   12     1.000000    90.000000     0.707107    -0.408248     0.577350    -0.250000    -0.500000     0.250000
   13     1.000000   180.000000     0.707107     0.408248    -0.577350    -0.250000    -0.500000     0.250000
   14    -1.000000   179.999999    -0.500000     0.288675     0.816497    -0.250000    -0.500000     0.250000
   15     1.000000   180.000000    -0.000000     0.816497     0.577350    -0.250000    -0.500000     0.250000
   16    -1.000000   179.999999     0.500000     0.866025     0.000000    -0.250000    -0.500000     0.250000
 
 Subroutine IBZKPT returns following result:
 ===========================================
 
 Found    126 irreducible k-points:
 
 Following reciprocal coordinates:
            Coordinates               Weight
  0.000000  0.000000  0.000000      1.000000
  0.090909  0.000000  0.000000      8.000000
  0.181818  0.000000  0.000000      8.000000
  0.272727  0.000000 -0.000000      8.000000
  0.363636  0.000000  0.000000      8.000000
  0.454545  0.000000  0.000000      8.000000
  0.000000  0.090909  0.000000      2.000000
  0.181818  0.090909  0.000000      4.000000
  0.272727  0.090909  0.000000      8.000000
  0.363636  0.090909  0.000000      8.000000
  0.454545  0.090909  0.000000      8.000000
 -0.454545  0.090909 -0.000000      8.000000
 -0.363636  0.090909 -0.000000      8.000000
 -0.272727  0.090909  0.000000      8.000000
 -0.181818  0.090909  0.000000      8.000000
 -0.090909  0.090909  0.000000      8.000000
  0.000000  0.181818  0.000000      2.000000
  0.363636  0.181818  0.000000      4.000000
  0.454545  0.181818  0.000000      8.000000
 -0.454545  0.181818 -0.000000      8.000000
 -0.363636  0.181818  0.000000      8.000000
 -0.272727  0.181818  0.000000      8.000000
 -0.181818  0.181818  0.000000      8.000000
 -0.090909  0.181818  0.000000      8.000000
 -0.000000  0.272727  0.000000      2.000000
 -0.454545  0.272727  0.000000      4.000000
 -0.363636  0.272727  0.000000      8.000000
 -0.272727  0.272727  0.000000      8.000000
 -0.181818  0.272727  0.000000      8.000000
 -0.090909  0.272727  0.000000      8.000000
  0.000000  0.363636  0.000000      2.000000
 -0.272727  0.363636  0.000000      4.000000
 -0.181818  0.363636  0.000000      8.000000
 -0.090909  0.363636  0.000000      8.000000
  0.000000  0.454545  0.000000      2.000000
 -0.090909  0.454545  0.000000      4.000000
  0.090909  0.000000  0.090909      8.000000
  0.181818  0.000000  0.090909     16.000000
  0.272727  0.000000  0.090909     16.000000
  0.363636  0.000000  0.090909     16.000000
  0.454545  0.000000  0.090909     16.000000
 -0.454545 -0.000000  0.090909     16.000000
 -0.363636  0.000000  0.090909     16.000000
 -0.272727  0.000000  0.090909     16.000000
 -0.181818  0.000000  0.090909     16.000000
 -0.090909  0.000000  0.090909      4.000000
  0.272727  0.181818  0.090909      8.000000
  0.363636  0.181818  0.090909     16.000000
  0.454545  0.181818  0.090909     16.000000
 -0.454545  0.181818  0.090909     16.000000
 -0.363636  0.181818  0.090909     16.000000
 -0.272727  0.181818  0.090909     16.000000
 -0.181818  0.181818  0.090909     16.000000
 -0.090909  0.181818  0.090909      8.000000
  0.454545  0.272727  0.090909      8.000000
 -0.454545  0.272727  0.090909     16.000000
 -0.363636  0.272727  0.090909     16.000000
 -0.272727  0.272727  0.090909     16.000000
 -0.181818  0.272727  0.090909     16.000000
 -0.090909  0.272727  0.090909      8.000000
 -0.363636  0.363636  0.090909      8.000000
 -0.272727  0.363636  0.090909     16.000000
 -0.181818  0.363636  0.090909     16.000000
 -0.090909  0.363636  0.090909      8.000000
 -0.181818  0.454545  0.090909      8.000000
 -0.090909  0.454545  0.090909      8.000000
  0.181818  0.000000  0.181818      8.000000
  0.272727  0.000000  0.181818     16.000000
  0.363636  0.000000  0.181818     16.000000
  0.454545  0.000000  0.181818     16.000000
 -0.454545 -0.000000  0.181818     16.000000
 -0.363636  0.000000  0.181818     16.000000
 -0.272727  0.000000  0.181818     16.000000
 -0.181818  0.000000  0.181818      4.000000
  0.181818  0.090909  0.181818      8.000000
  0.272727  0.090909  0.181818     16.000000
  0.363636  0.090909  0.181818     16.000000
  0.454545  0.090909  0.181818     16.000000
  0.363636  0.272727  0.181818      8.000000
  0.454545  0.272727  0.181818     16.000000
 -0.454545  0.272727  0.181818     16.000000
 -0.363636  0.272727  0.181818     16.000000
 -0.272727  0.272727  0.181818     16.000000
 -0.181818  0.272727  0.181818      8.000000
 -0.454545  0.363636  0.181818      8.000000
 -0.363636  0.363636  0.181818     16.000000
 -0.272727  0.363636  0.181818     16.000000
 -0.181818  0.363636  0.181818      8.000000
 -0.272727  0.454545  0.181818      8.000000
 -0.181818  0.454545  0.181818      8.000000
  0.272727  0.000000  0.272727      8.000000
  0.363636  0.000000  0.272727     16.000000
  0.454545  0.000000  0.272727     16.000000
 -0.454545 -0.000000  0.272727     16.000000
 -0.363636 -0.000000  0.272727     16.000000
 -0.272727 -0.000000  0.272727      4.000000
  0.272727  0.090909  0.272727      8.000000
  0.363636  0.090909  0.272727     16.000000
  0.454545  0.090909  0.272727     16.000000
 -0.454545  0.090909  0.272727     16.000000
 -0.363636  0.090909  0.272727     16.000000
 -0.272727  0.090909  0.272727      8.000000
  0.454545  0.363636  0.272727      8.000000
 -0.454545  0.363636  0.272727     16.000000
 -0.363636  0.363636  0.272727     16.000000
 -0.272727  0.363636  0.272727      8.000000
 -0.363636  0.454545  0.272727      8.000000
 -0.272727  0.454545  0.272727      8.000000
  0.363636  0.000000  0.363636      8.000000
  0.454545  0.000000  0.363636     16.000000
 -0.454545 -0.000000  0.363636     16.000000
 -0.363636  0.000000  0.363636      4.000000
  0.363636  0.090909  0.363636      8.000000
  0.454545  0.090909  0.363636     16.000000
 -0.454545  0.090909  0.363636     16.000000
 -0.363636  0.090909  0.363636      8.000000
  0.363636  0.181818  0.363636      8.000000
  0.454545  0.181818  0.363636     16.000000
 -0.454545  0.454545  0.363636      8.000000
 -0.363636  0.454545  0.363636      8.000000
  0.454545  0.000000  0.454545      8.000000
 -0.454545 -0.000000  0.454545      4.000000
  0.454545  0.090909  0.454545      8.000000
 -0.454545  0.090909  0.454545      8.000000
  0.454545  0.181818  0.454545      8.000000
 -0.454545  0.181818  0.454545      8.000000
 
 Following cartesian coordinates:
            Coordinates               Weight
  0.000000  0.000000  0.000000      1.000000
 -0.027529 -0.005298  0.007493      8.000000
 -0.055059 -0.010596  0.014985      8.000000
 -0.082588 -0.015894  0.022478      8.000000
 -0.110117 -0.021192  0.029970      8.000000
 -0.137646 -0.026490  0.037463      8.000000
  0.018353 -0.010596  0.014985      2.000000
 -0.036706 -0.021192  0.029970      4.000000
 -0.064235 -0.026490  0.037463      8.000000
 -0.091764 -0.031788  0.044955      8.000000
 -0.119294 -0.037086  0.052448      8.000000
  0.155999  0.015894 -0.022478      8.000000
  0.128470  0.010596 -0.014985      8.000000
  0.100941  0.005298 -0.007493      8.000000
  0.073411  0.000000  0.000000      8.000000
  0.045882 -0.005298  0.007493      8.000000
  0.036706 -0.021192  0.029970      2.000000
 -0.073411 -0.042384  0.059940      4.000000
 -0.100941 -0.047682  0.067433      8.000000
  0.174352  0.005298 -0.007493      8.000000
  0.146823  0.000000  0.000000      8.000000
  0.119294 -0.005298  0.007493      8.000000
  0.091764 -0.010596  0.014985      8.000000
  0.064235 -0.015894  0.022478      8.000000
  0.055059 -0.031788  0.044955      2.000000
  0.192705 -0.005298  0.007493      4.000000
  0.165176 -0.010596  0.014985      8.000000
  0.137646 -0.015894  0.022478      8.000000
  0.110117 -0.021192  0.029970      8.000000
  0.082588 -0.026490  0.037463      8.000000
  0.073411 -0.042384  0.059940      2.000000
  0.155999 -0.026490  0.037463      4.000000
  0.128470 -0.031788  0.044955      8.000000
  0.100941 -0.037086  0.052448      8.000000
  0.091764 -0.052980  0.074925      2.000000
  0.119294 -0.047682  0.067433      4.000000
 -0.036706  0.021192  0.014985      8.000000
 -0.064235  0.015894  0.022478     16.000000
 -0.091764  0.010596  0.029970     16.000000
 -0.119294  0.005298  0.037463     16.000000
 -0.146823 -0.000000  0.044955     16.000000
  0.128470  0.052980 -0.029970     16.000000
  0.100941  0.047682 -0.022478     16.000000
  0.073411  0.042384 -0.014985     16.000000
  0.045882  0.037086 -0.007493     16.000000
  0.018353  0.031788  0.000000      4.000000
 -0.055059 -0.010596  0.059940      8.000000
 -0.082588 -0.015894  0.067433     16.000000
 -0.110117 -0.021192  0.074925     16.000000
  0.165176  0.031788  0.000000     16.000000
  0.137646  0.026490  0.007493     16.000000
  0.110117  0.021192  0.014985     16.000000
  0.082588  0.015894  0.022478     16.000000
  0.055059  0.010596  0.029970      8.000000
 -0.091764 -0.031788  0.089910      8.000000
  0.183529  0.021192  0.014985     16.000000
  0.155999  0.015894  0.022478     16.000000
  0.128470  0.010596  0.029970     16.000000
  0.100941  0.005298  0.037463     16.000000
  0.073411  0.000000  0.044955      8.000000
  0.174352  0.005298  0.037463      8.000000
  0.146823  0.000000  0.044955     16.000000
  0.119294 -0.005298  0.052448     16.000000
  0.091764 -0.010596  0.059940      8.000000
  0.137646 -0.015894  0.067433      8.000000
  0.110117 -0.021192  0.074925      8.000000
 -0.073411  0.042384  0.029970      8.000000
 -0.100941  0.037086  0.037463     16.000000
 -0.128470  0.031788  0.044955     16.000000
 -0.155999  0.026490  0.052448     16.000000
  0.119294  0.079470 -0.022478     16.000000
  0.091764  0.074172 -0.014985     16.000000
  0.064235  0.068874 -0.007493     16.000000
  0.036706  0.063576  0.000000      4.000000
 -0.055059  0.031788  0.044955      8.000000
 -0.082588  0.026490  0.052448     16.000000
 -0.110117  0.021192  0.059940     16.000000
 -0.137646  0.015894  0.067433     16.000000
 -0.073411 -0.000000  0.089910      8.000000
 -0.100941 -0.005298  0.097403     16.000000
  0.174352  0.047682  0.022478     16.000000
  0.146823  0.042384  0.029970     16.000000
  0.119294  0.037086  0.037463     16.000000
  0.091764  0.031788  0.044955      8.000000
  0.192705  0.037086  0.037463      8.000000
  0.165176  0.031788  0.044955     16.000000
  0.137646  0.026490  0.052448     16.000000
  0.110117  0.021192  0.059940      8.000000
  0.155999  0.015894  0.067433      8.000000
  0.128470  0.010596  0.074925      8.000000
 -0.110117  0.063576  0.044955      8.000000
 -0.137646  0.058278  0.052448     16.000000
 -0.165176  0.052980  0.059940     16.000000
  0.110117  0.105960 -0.014985     16.000000
  0.082588  0.100662 -0.007493     16.000000
  0.055059  0.095364  0.000000      4.000000
 -0.091764  0.052980  0.059940      8.000000
 -0.119294  0.047682  0.067433     16.000000
 -0.146823  0.042384  0.074925     16.000000
  0.128470  0.095364  0.000000     16.000000
  0.100941  0.090066  0.007493     16.000000
  0.073411  0.084768  0.014985      8.000000
 -0.091764  0.010596  0.119880      8.000000
  0.183529  0.063576  0.044955     16.000000
  0.155999  0.058278  0.052448     16.000000
  0.128470  0.052980  0.059940      8.000000
  0.174352  0.047682  0.067433      8.000000
  0.146823  0.042384  0.074925      8.000000
 -0.146823  0.084768  0.059940      8.000000
 -0.174352  0.079470  0.067433     16.000000
  0.100941  0.132450 -0.007493     16.000000
  0.073411  0.127152  0.000000      4.000000
 -0.128470  0.074172  0.074925      8.000000
 -0.155999  0.068874  0.082418     16.000000
  0.119294  0.121854  0.007493     16.000000
  0.091764  0.116556  0.014985      8.000000
 -0.110117  0.063576  0.089910      8.000000
 -0.137646  0.058278  0.097403     16.000000
  0.192705  0.079470  0.067433      8.000000
  0.165176  0.074172  0.074925      8.000000
 -0.183529  0.105960  0.074925      8.000000
  0.091764  0.158940  0.000000      4.000000
 -0.165176  0.095364  0.089910      8.000000
  0.110117  0.148344  0.014985      8.000000
 -0.146823  0.084768  0.104895      8.000000
  0.128470  0.137748  0.029970      8.000000
 


--------------------------------------------------------------------------------------------------------




 Dimension of arrays:
   k-points           NKPTS =    126   k-points in BZ     NKDIM =    126   number of bands    NBANDS=     24
   number of dos      NEDOS =    301   number of ions     NIONS =      4
   non local maximal  LDIM  =      6   non local SUM 2l+1 LMDIM =     18
   total plane-waves  NPLWV =  25088
   max r-space proj   IRMAX =      1   max aug-charges    IRDMAX=  19123
   dimension x,y,z NGX =    28 NGY =   32 NGZ =   28
   dimension x,y,z NGXF=    56 NGYF=   64 NGZF=   56
   support grid    NGXF=    56 NGYF=   64 NGZF=   56
   ions per type =               4
   NGX,Y,Z   is equivalent  to a cutoff of  13.29, 12.40, 13.29 a.u.
   NGXF,Y,Z  is equivalent  to a cutoff of  26.58, 24.80, 26.58 a.u.

 SYSTEM =  unknown system                          
 POSCAR =  Ni1 str #: 7                            

 Startparameter for this run:
   NWRITE =      2    write-flag & timer
   PREC   = accura    normal or accurate (medium, high low for compatibility)
   ISTART =      0    job   : 0-new  1-cont  2-samecut
   ICHARG =      2    charge: 1-file 2-atom 10-const
   ISPIN  =      2    spin polarized calculation?
   LNONCOLLINEAR =      F non collinear calculations
   LSORBIT =      F    spin-orbit coupling
   INIWAV =      1    electr: 0-lowe 1-rand  2-diag
   LASPH  =      T    aspherical Exc in radial PAW
   METAGGA=      F    non-selfconsistent MetaGGA calc.

 Electronic Relaxation 1
   ENCUT  =  520.0 eV  38.22 Ry    6.18 a.u.   6.51  7.98  6.51*2*pi/ulx,y,z
   ENINI  =  520.0     initial cutoff
   ENAUG  =  544.6 eV  augmentation charge cutoff
   NELM   =     60;   NELMIN=  2; NELMDL= -5     # of ELM steps 
   EDIFF  = 0.1E-05   stopping-criterion for ELM
   LREAL  =      F    real-space projection
   NLSPLINE    = F    spline interpolate recip. space projectors
   LCOMPAT=      F    compatible to vasp.4.4
   GGA_COMPAT  = T    GGA compatible to vasp.4.4-vasp.4.6
   LMAXPAW     = -100 max onsite density
   LMAXMIX     =    2 max onsite mixed and CHGCAR
   VOSKOWN=      0    Vosko Wilk Nusair interpolation
   ROPT   =    0.00000
 Ionic relaxation
   EDIFFG = 0.1E-04   stopping-criterion for IOM
   NSW    =      0    number of steps for IOM
   NBLOCK =      1;   KBLOCK =      1    inner block; outer block 
   IBRION =     -1    ionic relax: 0-MD 1-quasi-New 2-CG
   NFREE  =      1    steps in history (QN), initial steepest desc. (CG)
   ISIF   =      2    stress and relaxation
   IWAVPR =     10    prediction:  0-non 1-charg 2-wave 3-comb
   ISYM   =      2    0-nonsym 1-usesym 2-fastsym
   LCORR  =      T    Harris-Foulkes like correction to forces

   POTIM  = 0.5000    time-step for ionic-motion
   TEIN   =    0.0    initial temperature
   TEBEG  =    0.0;   TEEND  =   0.0 temperature during run
   SMASS  =  -3.00    Nose mass-parameter (am)
   estimated Nose-frequenzy (Omega)   =  0.10E-29 period in steps =****** mass=  -0.280E-27a.u.
   SCALEE = 1.0000    scale energy and forces
   NPACO  =    256;   APACO  = 16.0  distance and # of slots for P.C.
   PSTRESS=    0.0 pullay stress

  Mass of Ions in am
   POMASS =  58.69
  Ionic Valenz
   ZVAL   =  10.00
  Atomic Wigner-Seitz radii
   RWIGS  =  -1.00
  virtual crystal weights 
   VCA    =   1.00
   NELECT =      40.0000    total number of electrons
   NUPDOWN=      -1.0000    fix difference up-down

 DOS related values:
   EMIN   =  10.00;   EMAX   =-10.00  energy-range for DOS
   EFERMI =   0.00
   ISMEAR =     1;   SIGMA  =   0.20  broadening in eV -4-tet -1-fermi 0-gaus

 Electronic relaxation 2 (details)
   IALGO  =     38    algorithm
   LDIAG  =      T    sub-space diagonalisation (order eigenvalues)
   LSUBROT=      F    optimize rotation matrix (better conditioning)
   TURBO    =      0    0=normal 1=particle mesh
   IRESTART =      0    0=no restart 2=restart with 2 vectors
   NREBOOT  =      0    no. of reboots
   NMIN     =      0    reboot dimension
   EREF     =   0.00    reference energy to select bands
   IMIX   =      4    mixing-type and parameters
     AMIX     =   0.40;   BMIX     =  1.00
     AMIX_MAG =   1.60;   BMIX_MAG =  1.00
     AMIN     =   0.10
     WC   =   100.;   INIMIX=   1;  MIXPRE=   1;  MAXMIX= -45

 Intra band minimization:
   WEIMIN = 0.0000     energy-eigenvalue tresh-hold
   EBREAK =  0.10E-07  absolut break condition
   DEPER  =   0.30     relativ break condition  

   TIME   =   0.40     timestep for ELM

  volume/ion in A,a.u.               =      10.74        72.49
  Fermi-wavevector in a.u.,A,eV,Ry     =   1.598477  3.020684 34.764640  2.555129
  Thomas-Fermi vector in A             =   2.695921
 
 Write flags
   LWAVE        =      F    write WAVECAR
   LDOWNSAMPLE  =      F    k-point downsampling of WAVECAR
   LCHARG       =      F    write CHGCAR
   LVTOT        =      F    write LOCPOT, total local potential
   LVHAR        =      F    write LOCPOT, Hartree potential only
   LELF         =      F    write electronic localiz. function (ELF)
   LORBIT       =     11    0 simple, 1 ext, 2 COOP (PROOUT), +10 PAW based schemes


 Dipole corrections
   LMONO  =      F    monopole corrections only (constant potential shift)
   LDIPOL =      F    correct potential (dipole corrections)
   IDIPOL =      0    1-x, 2-y, 3-z, 4-all directions 
   EPSILON=  1.0000000 bulk dielectric constant

 Exchange correlation treatment:
   GGA     =    --    GGA type
   LEXCH   =     8    internal setting for exchange type
   VOSKOWN=      0    Vosko Wilk Nusair interpolation
   LHFCALC =     F    Hartree Fock is set to
   LHFONE  =     F    Hartree Fock one center treatment
   AEXX    =    0.0000 exact exchange contribution

 Linear response parameters
   LEPSILON=     F    determine dielectric tensor
   LRPA    =     F    only Hartree local field effects (RPA)
   LNABLA  =     F    use nabla operator in PAW spheres
   LVEL    =     F    velocity operator in full k-point grid
   LINTERFAST=   F  fast interpolation
   KINTER  =     0    interpolate to denser k-point grid
   CSHIFT  =0.1000    complex shift for real part using Kramers Kronig
   OMEGAMAX=  -1.0    maximum frequency
   DEG_THRESHOLD= 0.2000000E-02 threshold for treating states as degnerate
   RTIME   =   -0.100 relaxation time in fs
  (WPLASMAI=    0.000 imaginary part of plasma frequency in eV, 0.658/RTIME)
   DFIELD  = 0.0000000 0.0000000 0.0000000 field for delta impulse in time
 
 Orbital magnetization related:
   ORBITALMAG=     F  switch on orbital magnetization
   LCHIMAG   =     F  perturbation theory with respect to B field
   DQ        =  0.001000  dq finite difference perturbation B field
   LLRAUG    =     F  two centre corrections for induced B field



--------------------------------------------------------------------------------------------------------


 Static calculation
 charge density and potential will be updated during run
 spin polarized calculation
 Variant of blocked Davidson
 Davidson routine will perform the subspace rotation
 perform sub-space diagonalisation
    after iterative eigenvector-optimisation
 modified Broyden-mixing scheme, WC =      100.0
 initial mixing is a Kerker type mixing with AMIX =  0.4000 and BMIX =      1.0000
 Hartree-type preconditioning will be used
 using additional bands            4
 reciprocal scheme for non local part
 use partial core corrections
 calculate Harris-corrections to forces 
   (improved forces if not selfconsistent)
 use gradient corrections 
 use of overlap-Matrix (Vanderbilt PP)
 Methfessel and Paxton  Order N= 1 SIGMA  =   0.20


--------------------------------------------------------------------------------------------------------


  energy-cutoff  :      520.00
  volume of cell :       42.97
      direct lattice vectors                 reciprocal lattice vectors
    -2.476700100 -1.429923470  2.022217100    -0.302822292 -0.058278184  0.082417786
     1.238350000 -0.714961740  4.044434200     0.201881528 -0.116556350  0.164835585
    -0.000000100  2.859846930  2.022217100    -0.100940764  0.291390884  0.082417790

  length of vectors
     3.502582835  4.289770275  3.502582827     0.319202723  0.285503598  0.319202721


 
 k-points in units of 2pi/SCALE and weight: k-points                                
   0.00000000  0.00000000  0.00000000       0.001
  -0.02752930 -0.00529802  0.00749253       0.006
  -0.05505860 -0.01059603  0.01498505       0.006
  -0.08258790 -0.01589405  0.02247758       0.006
  -0.11011720 -0.02119207  0.02997010       0.006
  -0.13764650 -0.02649008  0.03746263       0.006
   0.01835287 -0.01059603  0.01498505       0.002
  -0.03670573 -0.02119207  0.02997011       0.003
  -0.06423503 -0.02649008  0.03746263       0.006
  -0.09176433 -0.03178810  0.04495516       0.006
  -0.11929363 -0.03708612  0.05244768       0.006
   0.15599936  0.01589405 -0.02247758       0.006
   0.12847006  0.01059604 -0.01498505       0.006
   0.10094076  0.00529802 -0.00749252       0.006
   0.07341146  0.00000000  0.00000000       0.006
   0.04588217 -0.00529802  0.00749253       0.006
   0.03670573 -0.02119206  0.02997011       0.002
  -0.07341146 -0.04238413  0.05994021       0.003
  -0.10094076 -0.04768215  0.06743274       0.006
   0.17435223  0.00529802 -0.00749252       0.006
   0.14682293  0.00000000  0.00000000       0.006
   0.11929363 -0.00529801  0.00749253       0.006
   0.09176433 -0.01059603  0.01498505       0.006
   0.06423503 -0.01589405  0.02247758       0.006
   0.05505860 -0.03178810  0.04495516       0.002
   0.19270509 -0.00529801  0.00749253       0.003
   0.16517580 -0.01059603  0.01498506       0.006
   0.13764650 -0.01589405  0.02247758       0.006
   0.11011720 -0.02119206  0.02997011       0.006
   0.08258790 -0.02649008  0.03746263       0.006
   0.07341146 -0.04238413  0.05994021       0.002
   0.15599936 -0.02649008  0.03746263       0.003
   0.12847006 -0.03178809  0.04495516       0.006
   0.10094076 -0.03708611  0.05244769       0.006
   0.09176433 -0.05298016  0.07492527       0.002
   0.11929363 -0.04768214  0.06743274       0.003
  -0.03670573  0.02119206  0.01498505       0.006
  -0.06423503  0.01589405  0.02247758       0.012
  -0.09176433  0.01059603  0.02997010       0.012
  -0.11929363  0.00529801  0.03746263       0.012
  -0.14682293 -0.00000000  0.04495516       0.012
   0.12847006  0.05298016 -0.02997010       0.012
   0.10094076  0.04768215 -0.02247758       0.012
   0.07341146  0.04238413 -0.01498505       0.012
   0.04588217  0.03708611 -0.00749253       0.012
   0.01835287  0.03178810  0.00000000       0.003
  -0.05505860 -0.01059603  0.05994021       0.006
  -0.08258790 -0.01589405  0.06743274       0.012
  -0.11011720 -0.02119207  0.07492526       0.012
   0.16517580  0.03178810  0.00000000       0.012
   0.13764650  0.02649008  0.00749253       0.012
   0.11011720  0.02119207  0.01498505       0.012
   0.08258790  0.01589405  0.02247758       0.012
   0.05505860  0.01059603  0.02997011       0.006
  -0.09176433 -0.03178810  0.08991032       0.006
   0.18352866  0.02119207  0.01498506       0.012
   0.15599936  0.01589405  0.02247758       0.012
   0.12847006  0.01059604  0.02997011       0.012
   0.10094076  0.00529802  0.03746263       0.012
   0.07341146  0.00000000  0.04495516       0.006
   0.17435223  0.00529802  0.03746264       0.006
   0.14682293  0.00000000  0.04495516       0.012
   0.11929363 -0.00529801  0.05244769       0.012
   0.09176433 -0.01059603  0.05994021       0.006
   0.13764650 -0.01589405  0.06743274       0.006
   0.11011720 -0.02119206  0.07492527       0.006
  -0.07341146  0.04238413  0.02997010       0.006
  -0.10094076  0.03708611  0.03746263       0.012
  -0.12847006  0.03178809  0.04495516       0.012
  -0.15599936  0.02649008  0.05244768       0.012
   0.11929363  0.07947024 -0.02247758       0.012
   0.09176433  0.07417223 -0.01498505       0.012
   0.06423503  0.06887421 -0.00749253       0.012
   0.03670573  0.06357619  0.00000000       0.003
  -0.05505860  0.03178810  0.04495516       0.006
  -0.08258790  0.02649008  0.05244768       0.012
  -0.11011720  0.02119206  0.05994021       0.012
  -0.13764650  0.01589405  0.06743274       0.012
  -0.07341146 -0.00000000  0.08991032       0.006
  -0.10094076 -0.00529802  0.09740284       0.012
   0.17435223  0.04768215  0.02247758       0.012
   0.14682293  0.04238413  0.02997011       0.012
   0.11929363  0.03708612  0.03746263       0.012
   0.09176433  0.03178810  0.04495516       0.006
   0.19270509  0.03708612  0.03746264       0.006
   0.16517580  0.03178810  0.04495516       0.012
   0.13764650  0.02649008  0.05244769       0.012
   0.11011720  0.02119207  0.05994021       0.006
   0.15599936  0.01589405  0.06743274       0.006
   0.12847006  0.01059604  0.07492527       0.006
  -0.11011720  0.06357619  0.04495516       0.006
  -0.13764650  0.05827817  0.05244768       0.012
  -0.16517580  0.05298016  0.05994021       0.012
   0.11011720  0.10596032 -0.01498505       0.012
   0.08258790  0.10066231 -0.00749252       0.012
   0.05505860  0.09536429  0.00000000       0.003
  -0.09176433  0.05298016  0.05994021       0.006
  -0.11929363  0.04768214  0.06743274       0.012
  -0.14682293  0.04238413  0.07492526       0.012
   0.12847006  0.09536429  0.00000000       0.012
   0.10094076  0.09006628  0.00749253       0.012
   0.07341146  0.08476826  0.01498505       0.006
  -0.09176433  0.01059603  0.11988042       0.006
   0.18352866  0.06357620  0.04495516       0.012
   0.15599936  0.05827818  0.05244769       0.012
   0.12847006  0.05298016  0.05994021       0.006
   0.17435223  0.04768215  0.06743274       0.006
   0.14682293  0.04238413  0.07492527       0.006
  -0.14682293  0.08476825  0.05994021       0.006
  -0.17435223  0.07947024  0.06743274       0.012
   0.10094076  0.13245041 -0.00749252       0.012
   0.07341146  0.12715239  0.00000000       0.003
  -0.12847006  0.07417222  0.07492526       0.006
  -0.15599936  0.06887421  0.08241779       0.012
   0.11929363  0.12185437  0.00749253       0.012
   0.09176433  0.11655636  0.01498505       0.006
  -0.11011720  0.06357619  0.08991032       0.006
  -0.13764650  0.05827817  0.09740284       0.012
   0.19270509  0.07947025  0.06743274       0.006
   0.16517580  0.07417223  0.07492527       0.006
  -0.18352866  0.10596032  0.07492526       0.006
   0.09176433  0.15894049  0.00000000       0.003
  -0.16517580  0.09536429  0.08991032       0.006
   0.11011720  0.14834445  0.01498506       0.006
  -0.14682293  0.08476825  0.10489537       0.006
   0.12847006  0.13774842  0.02997011       0.006
 
 k-points in reciprocal lattice and weights: k-points                                
   0.00000000  0.00000000  0.00000000       0.001
   0.09090909  0.00000000  0.00000000       0.006
   0.18181818  0.00000000  0.00000000       0.006
   0.27272727  0.00000000 -0.00000000       0.006
   0.36363636  0.00000000  0.00000000       0.006
   0.45454545  0.00000000  0.00000000       0.006
   0.00000000  0.09090909  0.00000000       0.002
   0.18181818  0.09090909  0.00000000       0.003
   0.27272727  0.09090909  0.00000000       0.006
   0.36363636  0.09090909  0.00000000       0.006
   0.45454545  0.09090909  0.00000000       0.006
  -0.45454545  0.09090909 -0.00000000       0.006
  -0.36363636  0.09090909 -0.00000000       0.006
  -0.27272727  0.09090909  0.00000000       0.006
  -0.18181818  0.09090909  0.00000000       0.006
  -0.09090909  0.09090909  0.00000000       0.006
   0.00000000  0.18181818  0.00000000       0.002
   0.36363636  0.18181818  0.00000000       0.003
   0.45454545  0.18181818  0.00000000       0.006
  -0.45454545  0.18181818 -0.00000000       0.006
  -0.36363636  0.18181818  0.00000000       0.006
  -0.27272727  0.18181818  0.00000000       0.006
  -0.18181818  0.18181818  0.00000000       0.006
  -0.09090909  0.18181818  0.00000000       0.006
  -0.00000000  0.27272727  0.00000000       0.002
  -0.45454545  0.27272727  0.00000000       0.003
  -0.36363636  0.27272727  0.00000000       0.006
  -0.27272727  0.27272727  0.00000000       0.006
  -0.18181818  0.27272727  0.00000000       0.006
  -0.09090909  0.27272727  0.00000000       0.006
   0.00000000  0.36363636  0.00000000       0.002
  -0.27272727  0.36363636  0.00000000       0.003
  -0.18181818  0.36363636  0.00000000       0.006
  -0.09090909  0.36363636  0.00000000       0.006
   0.00000000  0.45454545  0.00000000       0.002
  -0.09090909  0.45454545  0.00000000       0.003
   0.09090909  0.00000000  0.09090909       0.006
   0.18181818  0.00000000  0.09090909       0.012
   0.27272727  0.00000000  0.09090909       0.012
   0.36363636  0.00000000  0.09090909       0.012
   0.45454545  0.00000000  0.09090909       0.012
  -0.45454545 -0.00000000  0.09090909       0.012
  -0.36363636  0.00000000  0.09090909       0.012
  -0.27272727  0.00000000  0.09090909       0.012
  -0.18181818  0.00000000  0.09090909       0.012
  -0.09090909  0.00000000  0.09090909       0.003
   0.27272727  0.18181818  0.09090909       0.006
   0.36363636  0.18181818  0.09090909       0.012
   0.45454545  0.18181818  0.09090909       0.012
  -0.45454545  0.18181818  0.09090909       0.012
  -0.36363636  0.18181818  0.09090909       0.012
  -0.27272727  0.18181818  0.09090909       0.012
  -0.18181818  0.18181818  0.09090909       0.012
  -0.09090909  0.18181818  0.09090909       0.006
   0.45454545  0.27272727  0.09090909       0.006
  -0.45454545  0.27272727  0.09090909       0.012
  -0.36363636  0.27272727  0.09090909       0.012
  -0.27272727  0.27272727  0.09090909       0.012
  -0.18181818  0.27272727  0.09090909       0.012
  -0.09090909  0.27272727  0.09090909       0.006
  -0.36363636  0.36363636  0.09090909       0.006
  -0.27272727  0.36363636  0.09090909       0.012
  -0.18181818  0.36363636  0.09090909       0.012
  -0.09090909  0.36363636  0.09090909       0.006
  -0.18181818  0.45454545  0.09090909       0.006
  -0.09090909  0.45454545  0.09090909       0.006
   0.18181818  0.00000000  0.18181818       0.006
   0.27272727  0.00000000  0.18181818       0.012
   0.36363636  0.00000000  0.18181818       0.012
   0.45454545  0.00000000  0.18181818       0.012
  -0.45454545 -0.00000000  0.18181818       0.012
  -0.36363636  0.00000000  0.18181818       0.012
  -0.27272727  0.00000000  0.18181818       0.012
  -0.18181818  0.00000000  0.18181818       0.003
   0.18181818  0.09090909  0.18181818       0.006
   0.27272727  0.09090909  0.18181818       0.012
   0.36363636  0.09090909  0.18181818       0.012
   0.45454545  0.09090909  0.18181818       0.012
   0.36363636  0.27272727  0.18181818       0.006
   0.45454545  0.27272727  0.18181818       0.012
  -0.45454545  0.27272727  0.18181818       0.012
  -0.36363636  0.27272727  0.18181818       0.012
  -0.27272727  0.27272727  0.18181818       0.012
  -0.18181818  0.27272727  0.18181818       0.006
  -0.45454545  0.36363636  0.18181818       0.006
  -0.36363636  0.36363636  0.18181818       0.012
  -0.27272727  0.36363636  0.18181818       0.012
  -0.18181818  0.36363636  0.18181818       0.006
  -0.27272727  0.45454545  0.18181818       0.006
  -0.18181818  0.45454545  0.18181818       0.006
   0.27272727  0.00000000  0.27272727       0.006
   0.36363636  0.00000000  0.27272727       0.012
   0.45454545  0.00000000  0.27272727       0.012
  -0.45454545 -0.00000000  0.27272727       0.012
  -0.36363636 -0.00000000  0.27272727       0.012
  -0.27272727 -0.00000000  0.27272727       0.003
   0.27272727  0.09090909  0.27272727       0.006
   0.36363636  0.09090909  0.27272727       0.012
   0.45454545  0.09090909  0.27272727       0.012
  -0.45454545  0.09090909  0.27272727       0.012
  -0.36363636  0.09090909  0.27272727       0.012
  -0.27272727  0.09090909  0.27272727       0.006
   0.45454545  0.36363636  0.27272727       0.006
  -0.45454545  0.36363636  0.27272727       0.012
  -0.36363636  0.36363636  0.27272727       0.012
  -0.27272727  0.36363636  0.27272727       0.006
  -0.36363636  0.45454545  0.27272727       0.006
  -0.27272727  0.45454545  0.27272727       0.006
   0.36363636  0.00000000  0.36363636       0.006
   0.45454545  0.00000000  0.36363636       0.012
  -0.45454545 -0.00000000  0.36363636       0.012
  -0.36363636  0.00000000  0.36363636       0.003
   0.36363636  0.09090909  0.36363636       0.006
   0.45454545  0.09090909  0.36363636       0.012
  -0.45454545  0.09090909  0.36363636       0.012
  -0.36363636  0.09090909  0.36363636       0.006
   0.36363636  0.18181818  0.36363636       0.006
   0.45454545  0.18181818  0.36363636       0.012
  -0.45454545  0.45454545  0.36363636       0.006
  -0.36363636  0.45454545  0.36363636       0.006
   0.45454545  0.00000000  0.45454545       0.006
  -0.45454545 -0.00000000  0.45454545       0.003
   0.45454545  0.09090909  0.45454545       0.006
  -0.45454545  0.09090909  0.45454545       0.006
   0.45454545  0.18181818  0.45454545       0.006
  -0.45454545  0.18181818  0.45454545       0.006
 
 position of ions in fractional coordinates (direct lattice) 
   0.00000000  0.00000000  0.00000000
   0.75000000  0.50000000  0.25000000
   0.50000000  0.00000000  0.50000000
   0.25000000  0.50000000  0.75000000
 
 position of ions in cartesian coordinates  (Angst):
   0.00000000  0.00000000  0.00000000
  -1.23835010 -0.71496174  4.04443420
  -1.23835010  0.71496173  2.02221710
  -0.00000010  1.42992346  4.04443420
 


--------------------------------------------------------------------------------------------------------


 k-point  1 :   0.0000 0.0000 0.0000  plane waves:    1145
 k-point  2 :   0.0909 0.0000 0.0000  plane waves:    1157
 k-point  3 :   0.1818 0.0000 0.0000  plane waves:    1151
 k-point  4 :   0.2727 0.0000-0.0000  plane waves:    1150
 k-point  5 :   0.3636 0.0000 0.0000  plane waves:    1155
 k-point  6 :   0.4545 0.0000 0.0000  plane waves:    1146
 k-point  7 :   0.0000 0.0909 0.0000  plane waves:    1153
 k-point  8 :   0.1818 0.0909 0.0000  plane waves:    1151
 k-point  9 :   0.2727 0.0909 0.0000  plane waves:    1149
 k-point 10 :   0.3636 0.0909 0.0000  plane waves:    1157
 k-point 11 :   0.4545 0.0909 0.0000  plane waves:    1158
 k-point 12 :  -0.4545 0.0909-0.0000  plane waves:    1155
 k-point 13 :  -0.3636 0.0909-0.0000  plane waves:    1155
 k-point 14 :  -0.2727 0.0909 0.0000  plane waves:    1158
 k-point 15 :  -0.1818 0.0909 0.0000  plane waves:    1160
 k-point 16 :  -0.0909 0.0909 0.0000  plane waves:    1162
 k-point 17 :   0.0000 0.1818 0.0000  plane waves:    1161
 k-point 18 :   0.3636 0.1818 0.0000  plane waves:    1147
 k-point 19 :   0.4545 0.1818 0.0000  plane waves:    1152
 k-point 20 :  -0.4545 0.1818-0.0000  plane waves:    1164
 k-point 21 :  -0.3636 0.1818 0.0000  plane waves:    1162
 k-point 22 :  -0.2727 0.1818 0.0000  plane waves:    1166
 k-point 23 :  -0.1818 0.1818 0.0000  plane waves:    1160
 k-point 24 :  -0.0909 0.1818 0.0000  plane waves:    1158
 k-point 25 :  -0.0000 0.2727 0.0000  plane waves:    1161
 k-point 26 :  -0.4545 0.2727 0.0000  plane waves:    1158
 k-point 27 :  -0.3636 0.2727 0.0000  plane waves:    1176
 k-point 28 :  -0.2727 0.2727 0.0000  plane waves:    1158
 k-point 29 :  -0.1818 0.2727 0.0000  plane waves:    1165
 k-point 30 :  -0.0909 0.2727 0.0000  plane waves:    1167
 k-point 31 :   0.0000 0.3636 0.0000  plane waves:    1181
 k-point 32 :  -0.2727 0.3636 0.0000  plane waves:    1168
 k-point 33 :  -0.1818 0.3636 0.0000  plane waves:    1165
 k-point 34 :  -0.0909 0.3636 0.0000  plane waves:    1178
 k-point 35 :   0.0000 0.4545 0.0000  plane waves:    1197
 k-point 36 :  -0.0909 0.4545 0.0000  plane waves:    1188
 k-point 37 :   0.0909 0.0000 0.0909  plane waves:    1156
 k-point 38 :   0.1818 0.0000 0.0909  plane waves:    1156
 k-point 39 :   0.2727 0.0000 0.0909  plane waves:    1153
 k-point 40 :   0.3636 0.0000 0.0909  plane waves:    1156
 k-point 41 :   0.4545 0.0000 0.0909  plane waves:    1153
 k-point 42 :  -0.4545-0.0000 0.0909  plane waves:    1153
 k-point 43 :  -0.3636 0.0000 0.0909  plane waves:    1157
 k-point 44 :  -0.2727 0.0000 0.0909  plane waves:    1156
 k-point 45 :  -0.1818 0.0000 0.0909  plane waves:    1151
 k-point 46 :  -0.0909 0.0000 0.0909  plane waves:    1145
 k-point 47 :   0.2727 0.1818 0.0909  plane waves:    1145
 k-point 48 :   0.3636 0.1818 0.0909  plane waves:    1160
 k-point 49 :   0.4545 0.1818 0.0909  plane waves:    1154
 k-point 50 :  -0.4545 0.1818 0.0909  plane waves:    1162
 k-point 51 :  -0.3636 0.1818 0.0909  plane waves:    1157
 k-point 52 :  -0.2727 0.1818 0.0909  plane waves:    1165
 k-point 53 :  -0.1818 0.1818 0.0909  plane waves:    1161
 k-point 54 :  -0.0909 0.1818 0.0909  plane waves:    1161
 k-point 55 :   0.4545 0.2727 0.0909  plane waves:    1162
 k-point 56 :  -0.4545 0.2727 0.0909  plane waves:    1155
 k-point 57 :  -0.3636 0.2727 0.0909  plane waves:    1158
 k-point 58 :  -0.2727 0.2727 0.0909  plane waves:    1167
 k-point 59 :  -0.1818 0.2727 0.0909  plane waves:    1164
 k-point 60 :  -0.0909 0.2727 0.0909  plane waves:    1162
 k-point 61 :  -0.3636 0.3636 0.0909  plane waves:    1167
 k-point 62 :  -0.2727 0.3636 0.0909  plane waves:    1162
 k-point 63 :  -0.1818 0.3636 0.0909  plane waves:    1166
 k-point 64 :  -0.0909 0.3636 0.0909  plane waves:    1163
 k-point 65 :  -0.1818 0.4545 0.0909  plane waves:    1169
 k-point 66 :  -0.0909 0.4545 0.0909  plane waves:    1181
 k-point 67 :   0.1818 0.0000 0.1818  plane waves:    1159
 k-point 68 :   0.2727 0.0000 0.1818  plane waves:    1161
 k-point 69 :   0.3636 0.0000 0.1818  plane waves:    1156
 k-point 70 :   0.4545 0.0000 0.1818  plane waves:    1159
 k-point 71 :  -0.4545-0.0000 0.1818  plane waves:    1153
 k-point 72 :  -0.3636 0.0000 0.1818  plane waves:    1153
 k-point 73 :  -0.2727 0.0000 0.1818  plane waves:    1154
 k-point 74 :  -0.1818 0.0000 0.1818  plane waves:    1147
 k-point 75 :   0.1818 0.0909 0.1818  plane waves:    1158
 k-point 76 :   0.2727 0.0909 0.1818  plane waves:    1152
 k-point 77 :   0.3636 0.0909 0.1818  plane waves:    1160
 k-point 78 :   0.4545 0.0909 0.1818  plane waves:    1155
 k-point 79 :   0.3636 0.2727 0.1818  plane waves:    1160
 k-point 80 :   0.4545 0.2727 0.1818  plane waves:    1151
 k-point 81 :  -0.4545 0.2727 0.1818  plane waves:    1160
 k-point 82 :  -0.3636 0.2727 0.1818  plane waves:    1162
 k-point 83 :  -0.2727 0.2727 0.1818  plane waves:    1167
 k-point 84 :  -0.1818 0.2727 0.1818  plane waves:    1168
 k-point 85 :  -0.4545 0.3636 0.1818  plane waves:    1152
 k-point 86 :  -0.3636 0.3636 0.1818  plane waves:    1154
 k-point 87 :  -0.2727 0.3636 0.1818  plane waves:    1165
 k-point 88 :  -0.1818 0.3636 0.1818  plane waves:    1164
 k-point 89 :  -0.2727 0.4545 0.1818  plane waves:    1166
 k-point 90 :  -0.1818 0.4545 0.1818  plane waves:    1163
 k-point 91 :   0.2727 0.0000 0.2727  plane waves:    1163
 k-point 92 :   0.3636 0.0000 0.2727  plane waves:    1150
 k-point 93 :   0.4545 0.0000 0.2727  plane waves:    1155
 k-point 94 :  -0.4545-0.0000 0.2727  plane waves:    1150
 k-point 95 :  -0.3636-0.0000 0.2727  plane waves:    1158
 k-point 96 :  -0.2727-0.0000 0.2727  plane waves:    1149
 k-point 97 :   0.2727 0.0909 0.2727  plane waves:    1159
 k-point 98 :   0.3636 0.0909 0.2727  plane waves:    1154
 k-point 99 :   0.4545 0.0909 0.2727  plane waves:    1156
 k-point ** :  -0.4545 0.0909 0.2727  plane waves:    1160
 k-point ** :  -0.3636 0.0909 0.2727  plane waves:    1153
 k-point ** :  -0.2727 0.0909 0.2727  plane waves:    1158
 k-point ** :   0.4545 0.3636 0.2727  plane waves:    1144
 k-point ** :  -0.4545 0.3636 0.2727  plane waves:    1152
 k-point ** :  -0.3636 0.3636 0.2727  plane waves:    1161
 k-point ** :  -0.2727 0.3636 0.2727  plane waves:    1154
 k-point ** :  -0.3636 0.4545 0.2727  plane waves:    1159
 k-point ** :  -0.2727 0.4545 0.2727  plane waves:    1167
 k-point ** :   0.3636 0.0000 0.3636  plane waves:    1154
 k-point ** :   0.4545 0.0000 0.3636  plane waves:    1144
 k-point ** :  -0.4545-0.0000 0.3636  plane waves:    1150
 k-point ** :  -0.3636 0.0000 0.3636  plane waves:    1147
 k-point ** :   0.3636 0.0909 0.3636  plane waves:    1161
 k-point ** :   0.4545 0.0909 0.3636  plane waves:    1148
 k-point ** :  -0.4545 0.0909 0.3636  plane waves:    1149
 k-point ** :  -0.3636 0.0909 0.3636  plane waves:    1150
 k-point ** :   0.3636 0.1818 0.3636  plane waves:    1156
 k-point ** :   0.4545 0.1818 0.3636  plane waves:    1158
 k-point ** :  -0.4545 0.4545 0.3636  plane waves:    1142
 k-point ** :  -0.3636 0.4545 0.3636  plane waves:    1145
 k-point ** :   0.4545 0.0000 0.4545  plane waves:    1141
 k-point ** :  -0.4545-0.0000 0.4545  plane waves:    1142
 k-point ** :   0.4545 0.0909 0.4545  plane waves:    1148
 k-point ** :  -0.4545 0.0909 0.4545  plane waves:    1135
 k-point ** :   0.4545 0.1818 0.4545  plane waves:    1156
 k-point ** :  -0.4545 0.1818 0.4545  plane waves:    1142

 maximum and minimum number of plane-waves per node :      1197     1135

 maximum number of plane-waves:      1197
 maximum index in each direction: 
   IXMAX=    6   IYMAX=    7   IZMAX=    6
   IXMIN=   -6   IYMIN=   -8   IZMIN=   -6


 serial   3D FFT for wavefunctions
 parallel 3D FFT for charge:
    minimum data exchange during FFTs selected (reduces bandwidth)


 total amount of memory used by VASP MPI-rank0    72233. kBytes
=======================================================================

   base      :      30000. kBytes
   nonl-proj :      21849. kBytes
   fftplans  :        982. kBytes
   grid      :       3892. kBytes
   one-center:        124. kBytes
   wavefun   :      15386. kBytes
 
     INWAV:  cpu time    0.0000: real time    0.0002
 Broyden mixing: mesh for mixing (old mesh)
   NGX = 13   NGY = 15   NGZ = 13
  (NGX  = 56   NGY  = 64   NGZ  = 56)
  gives a total of   2535 points

 initial charge density was supplied:
 charge density of overlapping atoms calculated
 number of electron      40.0000000 magnetization       0.0000000
 keeping initial charge density in first step


--------------------------------------------------------------------------------------------------------


 Maximum index for augmentation-charges         2330 (set IRDMAX)


--------------------------------------------------------------------------------------------------------


 First call to EWALD:  gamma=   0.506
 Maximum number of real-space cells 3x 3x 3
 Maximum number of reciprocal cells 3x 3x 3

    FEWALD:  cpu time    0.0012: real time    0.0012


--------------------------------------- Iteration      1(   1)  ---------------------------------------


    POTLOK:  cpu time    0.0319: real time    0.0349
    SETDIJ:  cpu time    0.5267: real time    0.5280
     EDDAV:  cpu time    2.7428: real time    2.7716
       DOS:  cpu time    0.0033: real time    0.0033
    --------------------------------------------
      LOOP:  cpu time    3.3047: real time    3.3377

 eigenvalue-minimisations  : 12272
 total energy-change (2. order) : 0.2508048E+03  (-0.1856357E+04)
 number of electron      40.0000000 magnetization       0.0000000
 augmentation part       40.0000000 magnetization       0.0000000

 Free energy of the ion-electron system (eV)
  ---------------------------------------------------
  alpha Z        PSCENC =       189.89774773
  Ewald energy   TEWEN  =     -3769.84881827
  -Hartree energ DENC   =      -972.41975722
  -exchange      EXHF   =         0.00000000
  -V(xc)+E(xc)   XCENC  =       127.22847231
  PAW double counting   =      3851.33269441    -4118.68284910
  entropy T*S    EENTRO =         0.00052039
  eigenvalues    EBANDS =       632.61311471
  atomic energy  EATOM  =      4310.68367761
  Solvation  Ediel_sol  =         0.00000000
  ---------------------------------------------------
  free energy    TOTEN  =       250.80480258 eV

  energy without entropy =      250.80428218  energy(sigma->0) =      250.80462911


--------------------------------------------------------------------------------------------------------




--------------------------------------- Iteration      1(   2)  ---------------------------------------


     EDDAV:  cpu time    2.7980: real time    2.8062
       DOS:  cpu time    0.0041: real time    0.0041
    --------------------------------------------
      LOOP:  cpu time    2.8022: real time    2.8104

 eigenvalue-minimisations  : 12528
 total energy-change (2. order) :-0.2623435E+03  (-0.2571539E+03)
 number of electron      40.0000000 magnetization       0.0000000
 augmentation part       40.0000000 magnetization       0.0000000

 Free energy of the ion-electron system (eV)
  ---------------------------------------------------
  alpha Z        PSCENC =       189.89774773
  Ewald energy   TEWEN  =     -3769.84881827
  -Hartree energ DENC   =      -972.41975722
  -exchange      EXHF   =         0.00000000
  -V(xc)+E(xc)   XCENC  =       127.22847231
  PAW double counting   =      3851.33269441    -4118.68284910
  entropy T*S    EENTRO =         0.00181777
  eigenvalues    EBANDS =       370.26835518
  atomic energy  EATOM  =      4310.68367761
  Solvation  Ediel_sol  =         0.00000000
  ---------------------------------------------------
  free energy    TOTEN  =       -11.53865958 eV

  energy without entropy =      -11.54047735  energy(sigma->0) =      -11.53926550


--------------------------------------------------------------------------------------------------------




--------------------------------------- Iteration      1(   3)  ---------------------------------------


     EDDAV:  cpu time    2.8753: real time    2.8824
       DOS:  cpu time    0.0044: real time    0.0044
    --------------------------------------------
      LOOP:  cpu time    2.8796: real time    2.8867

 eigenvalue-minimisations  : 12720
 total energy-change (2. order) :-0.1385064E+02  (-0.1346497E+02)
 number of electron      40.0000000 magnetization       0.0000000
 augmentation part       40.0000000 magnetization       0.0000000

 Free energy of the ion-electron system (eV)
  ---------------------------------------------------
  alpha Z        PSCENC =       189.89774773
  Ewald energy   TEWEN  =     -3769.84881827
  -Hartree energ DENC   =      -972.41975722
  -exchange      EXHF   =         0.00000000
  -V(xc)+E(xc)   XCENC  =       127.22847231
  PAW double counting   =      3851.33269441    -4118.68284910
  entropy T*S    EENTRO =        -0.03894049
  eigenvalues    EBANDS =       356.45847825
  atomic energy  EATOM  =      4310.68367761
  Solvation  Ediel_sol  =         0.00000000
  ---------------------------------------------------
  free energy    TOTEN  =       -25.38929477 eV

  energy without entropy =      -25.35035428  energy(sigma->0) =      -25.37631461


--------------------------------------------------------------------------------------------------------




--------------------------------------- Iteration      1(   4)  ---------------------------------------


     EDDAV:  cpu time    2.9788: real time    2.9859
       DOS:  cpu time    0.0044: real time    0.0044
    --------------------------------------------
      LOOP:  cpu time    2.9832: real time    2.9903

 eigenvalue-minimisations  : 13496
 total energy-change (2. order) :-0.2715945E+00  (-0.2684406E+00)
 number of electron      40.0000000 magnetization       0.0000000
 augmentation part       40.0000000 magnetization       0.0000000

 Free energy of the ion-electron system (eV)
  ---------------------------------------------------
  alpha Z        PSCENC =       189.89774773
  Ewald energy   TEWEN  =     -3769.84881827
  -Hartree energ DENC   =      -972.41975722
  -exchange      EXHF   =         0.00000000
  -V(xc)+E(xc)   XCENC  =       127.22847231
  PAW double counting   =      3851.33269441    -4118.68284910
  entropy T*S    EENTRO =        -0.03793931
  eigenvalues    EBANDS =       356.18588259
  atomic energy  EATOM  =      4310.68367761
  Solvation  Ediel_sol  =         0.00000000
  ---------------------------------------------------
  free energy    TOTEN  =       -25.66088925 eV

  energy without entropy =      -25.62294994  energy(sigma->0) =      -25.64824282


--------------------------------------------------------------------------------------------------------




--------------------------------------- Iteration      1(   5)  ---------------------------------------


     EDDAV:  cpu time    2.8625: real time    2.8697
       DOS:  cpu time    0.0044: real time    0.0044
    CHARGE:  cpu time    0.2691: real time    0.2698
    MIXING:  cpu time    0.0007: real time    0.0007
    --------------------------------------------
      LOOP:  cpu time    3.1366: real time    3.1446

 eigenvalue-minimisations  : 14872
 total energy-change (2. order) :-0.6861287E-02  (-0.6860266E-02)
 number of electron      39.9999994 magnetization       0.0000000
 augmentation part       22.4461796 magnetization       0.0000000

 Broyden mixing:
  rms(total) = 0.20288E+01    rms(broyden)= 0.20287E+01
  rms(prec ) = 0.40794E+01
  weight for this iteration     100.00

 Free energy of the ion-electron system (eV)
  ---------------------------------------------------
  alpha Z        PSCENC =       189.89774773
  Ewald energy   TEWEN  =     -3769.84881827
  -Hartree energ DENC   =      -972.41975722
  -exchange      EXHF   =         0.00000000
  -V(xc)+E(xc)   XCENC  =       127.22847231
  PAW double counting   =      3851.33269441    -4118.68284910
  entropy T*S    EENTRO =        -0.03787874
  eigenvalues    EBANDS =       356.17896072
  atomic energy  EATOM  =      4310.68367761
  Solvation  Ediel_sol  =         0.00000000
  ---------------------------------------------------
  free energy    TOTEN  =       -25.66775054 eV

  energy without entropy =      -25.62987180  energy(sigma->0) =      -25.65512430


--------------------------------------------------------------------------------------------------------




--------------------------------------- Iteration      1(   6)  ---------------------------------------


    POTLOK:  cpu time    0.0264: real time    0.0267
    SETDIJ:  cpu time    0.4753: real time    0.4766
     EDDAV:  cpu time    2.5597: real time    2.5657
       DOS:  cpu time    0.0044: real time    0.0044
    CHARGE:  cpu time    0.2661: real time    0.2667
    MIXING:  cpu time    0.0008: real time    0.0008
    --------------------------------------------
      LOOP:  cpu time    3.3327: real time    3.3410

 eigenvalue-minimisations  : 12112
 total energy-change (2. order) : 0.2731401E+01  (-0.4696476E+01)
 number of electron      39.9999993 magnetization       0.0000000
 augmentation part       25.9162760 magnetization       0.0000000

 Broyden mixing:
  rms(total) = 0.11950E+01    rms(broyden)= 0.11950E+01
  rms(prec ) = 0.19552E+01
  weight for this iteration     100.00

 eigenvalues of (default mixing * dielectric matrix)
  average eigenvalue GAMMA=   0.7405
  0.7405

 Free energy of the ion-electron system (eV)
  ---------------------------------------------------
  alpha Z        PSCENC =       189.89774773
  Ewald energy   TEWEN  =     -3769.84881827
  -Hartree energ DENC   =      -876.41954270
  -exchange      EXHF   =         0.00000000
  -V(xc)+E(xc)   XCENC  =       121.98521819
  PAW double counting   =      4127.04322930    -4376.91522947
  entropy T*S    EENTRO =        -0.04787586
  eigenvalues    EBANDS =       250.68524442
  atomic energy  EATOM  =      4310.68367761
  Solvation  Ediel_sol  =         0.00000000
  ---------------------------------------------------
  free energy    TOTEN  =       -22.93634905 eV

  energy without entropy =      -22.88847319  energy(sigma->0) =      -22.92039043


--------------------------------------------------------------------------------------------------------




--------------------------------------- Iteration      1(   7)  ---------------------------------------


    POTLOK:  cpu time    0.0274: real time    0.0276
    SETDIJ:  cpu time    0.5126: real time    0.5138
     EDDAV:  cpu time    2.6988: real time    2.7052
       DOS:  cpu time    0.0044: real time    0.0044
    CHARGE:  cpu time    0.2913: real time    0.2920
    MIXING:  cpu time    0.0008: real time    0.0008
    --------------------------------------------
      LOOP:  cpu time    3.5353: real time    3.5438

 eigenvalue-minimisations  : 12112
 total energy-change (2. order) : 0.1236036E+01  (-0.8281838E+00)
 number of electron      39.9999993 magnetization      -0.0000000
 augmentation part       24.5161818 magnetization      -0.0000000

 Broyden mixing:
  rms(total) = 0.36801E+00    rms(broyden)= 0.36800E+00
  rms(prec ) = 0.52125E+00
  weight for this iteration     100.00

 eigenvalues of (default mixing * dielectric matrix)
  average eigenvalue GAMMA=   0.9929
  1.3790  0.6068

 Free energy of the ion-electron system (eV)
  ---------------------------------------------------
  alpha Z        PSCENC =       189.89774773
  Ewald energy   TEWEN  =     -3769.84881827
  -Hartree energ DENC   =      -905.22505738
  -exchange      EXHF   =         0.00000000
  -V(xc)+E(xc)   XCENC  =       123.47749620
  PAW double counting   =      4283.00681135    -4548.51496370
  entropy T*S    EENTRO =        -0.04479432
  eigenvalues    EBANDS =       294.86758787
  atomic energy  EATOM  =      4310.68367761
  Solvation  Ediel_sol  =         0.00000000
  ---------------------------------------------------
  free energy    TOTEN  =       -21.70031291 eV

  energy without entropy =      -21.65551859  energy(sigma->0) =      -21.68538147


--------------------------------------------------------------------------------------------------------




--------------------------------------- Iteration      1(   8)  ---------------------------------------


    POTLOK:  cpu time    0.0293: real time    0.0299
    SETDIJ:  cpu time    0.5124: real time    0.5136
     EDDAV:  cpu time    3.2561: real time    3.2639
       DOS:  cpu time    0.0044: real time    0.0044
    CHARGE:  cpu time    0.2974: real time    0.2981
    MIXING:  cpu time    0.0008: real time    0.0008
    --------------------------------------------
      LOOP:  cpu time    4.1004: real time    4.1106

 eigenvalue-minimisations  : 16224
 total energy-change (2. order) : 0.3476823E-01  (-0.1571663E-01)
 number of electron      39.9999993 magnetization      -0.0000000
 augmentation part       24.5883703 magnetization      -0.0000000

 Broyden mixing:
  rms(total) = 0.15980E+00    rms(broyden)= 0.15979E+00
  rms(prec ) = 0.22553E+00
  weight for this iteration     100.00

 eigenvalues of (default mixing * dielectric matrix)
  average eigenvalue GAMMA=   1.0296
  1.8372  0.6259  0.6259

 Free energy of the ion-electron system (eV)
  ---------------------------------------------------
  alpha Z        PSCENC =       189.89774773
  Ewald energy   TEWEN  =     -3769.84881827
  -Hartree energ DENC   =      -896.22798196
  -exchange      EXHF   =         0.00000000
  -V(xc)+E(xc)   XCENC  =       122.99763892
  PAW double counting   =      4473.01754763    -4743.95761982
  entropy T*S    EENTRO =        -0.04788752
  eigenvalues    EBANDS =       291.82015098
  atomic energy  EATOM  =      4310.68367761
  Solvation  Ediel_sol  =         0.00000000
  ---------------------------------------------------
  free energy    TOTEN  =       -21.66554468 eV

  energy without entropy =      -21.61765716  energy(sigma->0) =      -21.64958217


--------------------------------------------------------------------------------------------------------




--------------------------------------- Iteration      1(   9)  ---------------------------------------


    POTLOK:  cpu time    0.0266: real time    0.0268
    SETDIJ:  cpu time    0.5221: real time    0.5234
     EDDAV:  cpu time    2.9314: real time    2.9384
       DOS:  cpu time    0.0044: real time    0.0044
    CHARGE:  cpu time    0.2863: real time    0.2870
    MIXING:  cpu time    0.0010: real time    0.0010
    --------------------------------------------
      LOOP:  cpu time    3.7719: real time    3.7809

 eigenvalue-minimisations  : 14200
 total energy-change (2. order) : 0.2211622E-02  (-0.3664962E-02)
 number of electron      39.9999993 magnetization      -0.0000000
 augmentation part       24.6323080 magnetization      -0.0000000

 Broyden mixing:
  rms(total) = 0.63083E-01    rms(broyden)= 0.63068E-01
  rms(prec ) = 0.93288E-01
  weight for this iteration     100.00

 eigenvalues of (default mixing * dielectric matrix)
  average eigenvalue GAMMA=   1.3657
  2.9850  1.2344  0.6217  0.6217

 Free energy of the ion-electron system (eV)
  ---------------------------------------------------
  alpha Z        PSCENC =       189.89774773
  Ewald energy   TEWEN  =     -3769.84881827
  -Hartree energ DENC   =      -893.17540730
  -exchange      EXHF   =         0.00000000
  -V(xc)+E(xc)   XCENC  =       122.84099199
  PAW double counting   =      4531.92191744    -4804.53007260
  entropy T*S    EENTRO =        -0.04856863
  eigenvalues    EBANDS =       290.59519896
  atomic energy  EATOM  =      4310.68367761
  Solvation  Ediel_sol  =         0.00000000
  ---------------------------------------------------
  free energy    TOTEN  =       -21.66333306 eV

  energy without entropy =      -21.61476443  energy(sigma->0) =      -21.64714352


--------------------------------------------------------------------------------------------------------




--------------------------------------- Iteration      1(  10)  ---------------------------------------


    POTLOK:  cpu time    0.0285: real time    0.0287
    SETDIJ:  cpu time    0.5183: real time    0.5196
     EDDAV:  cpu time    4.5434: real time    4.5543
       DOS:  cpu time    0.0044: real time    0.0044
    CHARGE:  cpu time    0.2753: real time    0.2759
    MIXING:  cpu time    0.0010: real time    0.0010
    --------------------------------------------
      LOOP:  cpu time    5.3710: real time    5.3838

 eigenvalue-minimisations  : 23344
 total energy-change (2. order) :-0.3417844E-03  (-0.3041731E-02)
 number of electron      39.9999993 magnetization       0.0000000
 augmentation part       24.6654894 magnetization       0.0000000

 Broyden mixing:
  rms(total) = 0.25495E-01    rms(broyden)= 0.25455E-01
  rms(prec ) = 0.29202E-01
  weight for this iteration     100.00

 eigenvalues of (default mixing * dielectric matrix)
  average eigenvalue GAMMA=   1.2274
  3.2117  1.3240  0.6178  0.6178  0.3657

 Free energy of the ion-electron system (eV)
  ---------------------------------------------------
  alpha Z        PSCENC =       189.89774773
  Ewald energy   TEWEN  =     -3769.84881827
  -Hartree energ DENC   =      -889.92478452
  -exchange      EXHF   =         0.00000000
  -V(xc)+E(xc)   XCENC  =       122.67888683
  PAW double counting   =      4600.90623073    -4875.55733180
  entropy T*S    EENTRO =        -0.04911646
  eigenvalues    EBANDS =       289.54983330
  atomic energy  EATOM  =      4310.68367761
  Solvation  Ediel_sol  =         0.00000000
  ---------------------------------------------------
  free energy    TOTEN  =       -21.66367484 eV

  energy without entropy =      -21.61455839  energy(sigma->0) =      -21.64730269


--------------------------------------------------------------------------------------------------------




--------------------------------------- Iteration      1(  11)  ---------------------------------------


    POTLOK:  cpu time    0.0302: real time    0.0304
    SETDIJ:  cpu time    0.5162: real time    0.5175
     EDDAV:  cpu time    3.4882: real time    3.4965
       DOS:  cpu time    0.0043: real time    0.0043
    CHARGE:  cpu time    0.2744: real time    0.2750
    MIXING:  cpu time    0.0008: real time    0.0008
    --------------------------------------------
      LOOP:  cpu time    4.3142: real time    4.3245

 eigenvalue-minimisations  : 17512
 total energy-change (2. order) :-0.8250259E-03  (-0.2884626E-03)
 number of electron      39.9999993 magnetization       0.0000000
 augmentation part       24.6662519 magnetization       0.0000000

 Broyden mixing:
  rms(total) = 0.21305E-01    rms(broyden)= 0.21296E-01
  rms(prec ) = 0.25737E-01
  weight for this iteration     100.00

 eigenvalues of (default mixing * dielectric matrix)
  average eigenvalue GAMMA=   1.6967
  5.5431  1.8561  0.7788  0.7788  0.6118  0.6118

 Free energy of the ion-electron system (eV)
  ---------------------------------------------------
  alpha Z        PSCENC =       189.89774773
  Ewald energy   TEWEN  =     -3769.84881827
  -Hartree energ DENC   =      -889.95093927
  -exchange      EXHF   =         0.00000000
  -V(xc)+E(xc)   XCENC  =       122.67975454
  PAW double counting   =      4601.38971561    -4876.03951318
  entropy T*S    EENTRO =        -0.04918516
  eigenvalues    EBANDS =       289.57306052
  atomic energy  EATOM  =      4310.68367761
  Solvation  Ediel_sol  =         0.00000000
  ---------------------------------------------------
  free energy    TOTEN  =       -21.66449987 eV

  energy without entropy =      -21.61531471  energy(sigma->0) =      -21.64810482


--------------------------------------------------------------------------------------------------------




--------------------------------------- Iteration      1(  12)  ---------------------------------------


    POTLOK:  cpu time    0.0278: real time    0.0279
    SETDIJ:  cpu time    0.5214: real time    0.5227
     EDDAV:  cpu time    3.8435: real time    3.8527
       DOS:  cpu time    0.0043: real time    0.0043
    CHARGE:  cpu time    0.2742: real time    0.2749
    MIXING:  cpu time    0.0009: real time    0.0009
    --------------------------------------------
      LOOP:  cpu time    4.6721: real time    4.6833

 eigenvalue-minimisations  : 19616
 total energy-change (2. order) :-0.3959640E-03  (-0.4360036E-03)
 number of electron      39.9999993 magnetization      -0.0000000
 augmentation part       24.6637497 magnetization      -0.0000000

 Broyden mixing:
  rms(total) = 0.12064E-01    rms(broyden)= 0.12049E-01
  rms(prec ) = 0.15672E-01
  weight for this iteration     100.00

 eigenvalues of (default mixing * dielectric matrix)
  average eigenvalue GAMMA=   1.5937
  5.1112  2.3387  1.0859  0.7569  0.6603  0.6014  0.6014

 Free energy of the ion-electron system (eV)
  ---------------------------------------------------
  alpha Z        PSCENC =       189.89774773
  Ewald energy   TEWEN  =     -3769.84881827
  -Hartree energ DENC   =      -890.06889641
  -exchange      EXHF   =         0.00000000
  -V(xc)+E(xc)   XCENC  =       122.68469402
  PAW double counting   =      4602.16557056    -4876.79418681
  entropy T*S    EENTRO =        -0.04926539
  eigenvalues    EBANDS =       289.66458112
  atomic energy  EATOM  =      4310.68367761
  Solvation  Ediel_sol  =         0.00000000
  ---------------------------------------------------
  free energy    TOTEN  =       -21.66489583 eV

  energy without entropy =      -21.61563044  energy(sigma->0) =      -21.64847404


--------------------------------------------------------------------------------------------------------




--------------------------------------- Iteration      1(  13)  ---------------------------------------


    POTLOK:  cpu time    0.0277: real time    0.0279
    SETDIJ:  cpu time    0.5097: real time    0.5109
     EDDAV:  cpu time    4.2344: real time    4.2445
       DOS:  cpu time    0.0045: real time    0.0045
    CHARGE:  cpu time    0.2732: real time    0.2738
    MIXING:  cpu time    0.0010: real time    0.0010
    --------------------------------------------
      LOOP:  cpu time    5.0505: real time    5.0625

 eigenvalue-minimisations  : 21744
 total energy-change (2. order) :-0.1057259E-03  (-0.1593642E-03)
 number of electron      39.9999993 magnetization       0.0000000
 augmentation part       24.6593469 magnetization       0.0000000

 Broyden mixing:
  rms(total) = 0.33683E-02    rms(broyden)= 0.33483E-02
  rms(prec ) = 0.36178E-02
  weight for this iteration     100.00

 eigenvalues of (default mixing * dielectric matrix)
  average eigenvalue GAMMA=   1.4446
  4.2402  2.3776  1.3938  0.9078  0.8139  0.6228  0.6228  0.5782

 Free energy of the ion-electron system (eV)
  ---------------------------------------------------
  alpha Z        PSCENC =       189.89774773
  Ewald energy   TEWEN  =     -3769.84881827
  -Hartree energ DENC   =      -890.51006797
  -exchange      EXHF   =         0.00000000
  -V(xc)+E(xc)   XCENC  =       122.70515272
  PAW double counting   =      4594.08936045    -4868.41994405
  entropy T*S    EENTRO =        -0.04928757
  eigenvalues    EBANDS =       289.78717779
  atomic energy  EATOM  =      4310.68367761
  Solvation  Ediel_sol  =         0.00000000
  ---------------------------------------------------
  free energy    TOTEN  =       -21.66500156 eV

  energy without entropy =      -21.61571399  energy(sigma->0) =      -21.64857237


--------------------------------------------------------------------------------------------------------




--------------------------------------- Iteration      1(  14)  ---------------------------------------


    POTLOK:  cpu time    0.0276: real time    0.0278
    SETDIJ:  cpu time    0.5079: real time    0.5091
     EDDAV:  cpu time    3.6411: real time    3.6497
       DOS:  cpu time    0.0045: real time    0.0045
    CHARGE:  cpu time    0.2743: real time    0.2749
    MIXING:  cpu time    0.0011: real time    0.0011
    --------------------------------------------
      LOOP:  cpu time    4.4566: real time    4.4672

 eigenvalue-minimisations  : 18368
 total energy-change (2. order) :-0.3755781E-04  (-0.1575661E-04)
 number of electron      39.9999993 magnetization      -0.0000000
 augmentation part       24.6606258 magnetization      -0.0000000

 Broyden mixing:
  rms(total) = 0.21737E-02    rms(broyden)= 0.21669E-02
  rms(prec ) = 0.23911E-02
  weight for this iteration     100.00

 eigenvalues of (default mixing * dielectric matrix)
  average eigenvalue GAMMA=   1.4155
  4.3510  2.3285  1.7160  1.0039  0.7504  0.7504  0.6223  0.6223  0.5947

 Free energy of the ion-electron system (eV)
  ---------------------------------------------------
  alpha Z        PSCENC =       189.89774773
  Ewald energy   TEWEN  =     -3769.84881827
  -Hartree energ DENC   =      -890.46909703
  -exchange      EXHF   =         0.00000000
  -V(xc)+E(xc)   XCENC  =       122.70291801
  PAW double counting   =      4594.27438961    -4868.59936636
  entropy T*S    EENTRO =        -0.04929945
  eigenvalues    EBANDS =       289.74280903
  atomic energy  EATOM  =      4310.68367761
  Solvation  Ediel_sol  =         0.00000000
  ---------------------------------------------------
  free energy    TOTEN  =       -21.66503912 eV

  energy without entropy =      -21.61573967  energy(sigma->0) =      -21.64860597


--------------------------------------------------------------------------------------------------------




--------------------------------------- Iteration      1(  15)  ---------------------------------------


    POTLOK:  cpu time    0.0295: real time    0.0297
    SETDIJ:  cpu time    0.5165: real time    0.5177
     EDDAV:  cpu time    4.2928: real time    4.3034
       DOS:  cpu time    0.0044: real time    0.0044
    CHARGE:  cpu time    0.2740: real time    0.2746
[...]
     12       7.4696      1.00000
     13       8.1556      1.00000
     14       8.1556      1.00000
     15       8.6478      1.00000
     16       8.6478      1.00000
     17       8.6654      1.00001
     18       8.9027      1.00287
     19       9.3209      0.66020
     20       9.3210      0.65968
     21       9.3545      0.52141
     22       9.9233     -0.00025
     23      10.8455     -0.00000
     24      10.8455     -0.00000

 k-point   122 :      -0.4545   -0.0000    0.4545
  band No.  band energies     occupation 
      1       4.8419      1.00000
      2       4.9180      1.00000
      3       4.9180      1.00000
      4       5.7878      1.00000
      5       6.7579      1.00000
      6       6.8297      1.00000
      7       6.8349      1.00000
      8       7.2332      1.00000
      9       7.4067      1.00000
     10       7.4067      1.00000
     11       7.4593      1.00000
     12       7.4593      1.00000
     13       8.1179      1.00000
     14       8.1965      1.00000
     15       8.4280      1.00000
     16       8.7227      1.00003
     17       8.7616      1.00010
     18       8.7616      1.00010
     19       9.3489      0.54498
     20       9.3489      0.54498
     21       9.8597     -0.00115
     22       9.8597     -0.00115
     23      10.2414     -0.00000
     24      11.5983     -0.00000

 k-point   123 :       0.4545    0.0909    0.4545
  band No.  band energies     occupation 
      1       4.7987      1.00000
      2       5.0671      1.00000
      3       5.2924      1.00000
      4       5.2924      1.00000
      5       6.9448      1.00000
      6       6.9448      1.00000
      7       7.1329      1.00000
      8       7.1329      1.00000
      9       7.2846      1.00000
     10       7.4418      1.00000
     11       7.4971      1.00000
     12       7.5561      1.00000
     13       7.9639      1.00000
     14       7.9639      1.00000
     15       8.1855      1.00000
     16       8.2405      1.00000
     17       8.8507      1.00095
     18       8.8507      1.00095
     19       9.2116      0.97304
     20       9.3095      0.70470
     21       9.6033     -0.03545
     22      10.6669     -0.00000
     23      10.7870     -0.00000
     24      10.7870     -0.00000

 k-point   124 :      -0.4545    0.0909    0.4545
  band No.  band energies     occupation 
      1       4.8345      1.00000
      2       4.9474      1.00000
      3       4.9474      1.00000
      4       5.6894      1.00000
      5       6.8392      1.00000
      6       6.8496      1.00000
      7       7.0017      1.00000
      8       7.2591      1.00000
      9       7.3719      1.00000
     10       7.3719      1.00000
     11       7.4977      1.00000
     12       7.4977      1.00000
     13       7.9779      1.00000
     14       8.0879      1.00000
     15       8.4441      1.00000
     16       8.4441      1.00000
     17       8.5805      1.00000
     18       8.8292      1.00057
     19       9.3447      0.56285
     20       9.3447      0.56285
     21      10.0746     -0.00000
     22      10.0746     -0.00000
     23      10.2053     -0.00000
     24      11.5721     -0.00000

 k-point   125 :       0.4545    0.1818    0.4545
  band No.  band energies     occupation 
      1       4.7976      1.00000
      2       5.1561      1.00000
      3       5.1561      1.00000
      4       5.2576      1.00000
      5       7.1267      1.00000
      6       7.1468      1.00000
      7       7.1468      1.00000
      8       7.3843      1.00000
      9       7.4238      1.00000
     10       7.4238      1.00000
     11       7.6093      1.00000
     12       7.6106      1.00000
     13       7.7012      1.00000
     14       7.7213      1.00000
     15       7.7655      1.00000
     16       7.7655      1.00000
     17       9.0376      1.02262
     18       9.0684      1.02957
     19       9.0684      1.02957
     20       9.1923      0.99879
     21       9.8941     -0.00052
     22      10.6515     -0.00000
     23      10.6515     -0.00000
     24      11.1942     -0.00000

 k-point   126 :      -0.4545    0.1818    0.4545
  band No.  band energies     occupation 
      1       4.8157      1.00000
      2       5.0315      1.00000
      3       5.0315      1.00000
      4       5.4796      1.00000
      5       6.9599      1.00000
      6       7.1257      1.00000
      7       7.2821      1.00000
      8       7.2821      1.00000
      9       7.3167      1.00000
     10       7.3272      1.00000
     11       7.5989      1.00000
     12       7.5989      1.00000
     13       7.7765      1.00000
     14       7.8895      1.00000
     15       7.9106      1.00000
     16       7.9106      1.00000
     17       8.8176      1.00043
     18       9.0201      1.01866
     19       9.2441      0.90946
     20       9.2441      0.90946
     21      10.0930     -0.00000
     22      10.4109     -0.00000
     23      10.4109     -0.00000
     24      11.4656     -0.00000


--------------------------------------------------------------------------------------------------------


 soft charge-density along one line, spin component           1
         0         1         2         3         4         5         6         7         8         9
 total charge-density along one line
 
 soft charge-density along one line, spin component           2
         0         1         2         3         4         5         6         7         8         9
 total charge-density along one line
 
 pseudopotential strength for first ion, spin component:           1
 -0.134  -0.000  -0.000  -0.013  -0.000  -0.831  -0.000  -0.000
 -0.000  -0.124   0.000  -0.000  -0.013  -0.000  -0.822   0.000
 -0.000   0.000  -0.143  -0.000   0.000  -0.000   0.000  -0.841
 -0.013  -0.000  -0.000  -0.124  -0.000  -0.013  -0.000  -0.000
 -0.000  -0.013   0.000  -0.000  -0.134  -0.000  -0.013   0.000
 -0.831  -0.000  -0.000  -0.013  -0.000  -1.457  -0.000  -0.000
 -0.000  -0.822   0.000  -0.000  -0.013  -0.000  -1.448   0.000
 -0.000   0.000  -0.841  -0.000   0.000  -0.000   0.000  -1.466
 -0.013  -0.000  -0.000  -0.822  -0.000  -0.013  -0.000  -0.000
 -0.000  -0.013   0.000  -0.000  -0.832  -0.000  -0.013   0.000
 -0.000  -0.000  -0.000   0.000   0.000  -0.000  -0.000  -0.000
 -0.000  -0.000  -0.000   0.000   0.000  -0.000  -0.000  -0.000
  0.000  -0.000   0.000   0.000   0.000   0.000  -0.000   0.000
  0.000   0.000   0.000   0.000   0.000   0.000   0.000   0.000
 -0.000   0.000   0.000   0.000  -0.000  -0.000   0.000   0.000
  0.000  -0.000   0.000   0.000   0.000   0.000  -0.000   0.000
  0.000   0.000   0.000   0.000   0.000   0.000   0.000   0.000
 -0.000   0.000   0.000   0.000  -0.000  -0.000   0.000   0.000
 pseudopotential strength for first ion, spin component:           2
 -0.134  -0.000  -0.000  -0.013  -0.000  -0.831  -0.000  -0.000
 -0.000  -0.124   0.000  -0.000  -0.013  -0.000  -0.822   0.000
 -0.000   0.000  -0.143  -0.000   0.000  -0.000   0.000  -0.841
 -0.013  -0.000  -0.000  -0.124  -0.000  -0.013  -0.000  -0.000
 -0.000  -0.013   0.000  -0.000  -0.134  -0.000  -0.013   0.000
 -0.831  -0.000  -0.000  -0.013  -0.000  -1.457  -0.000  -0.000
 -0.000  -0.822   0.000  -0.000  -0.013  -0.000  -1.448   0.000
 -0.000   0.000  -0.841  -0.000   0.000  -0.000   0.000  -1.466
 -0.013  -0.000  -0.000  -0.822  -0.000  -0.012  -0.000  -0.000
 -0.000  -0.013   0.000  -0.000  -0.831  -0.000  -0.012   0.000
 -0.000  -0.000  -0.000   0.000   0.000  -0.000  -0.000  -0.000
 -0.000  -0.000  -0.000   0.000   0.000  -0.000  -0.000  -0.000
 -0.000   0.000  -0.000  -0.000  -0.000  -0.000   0.000  -0.000
 -0.000  -0.000  -0.000  -0.000  -0.000  -0.000  -0.000  -0.000
  0.000  -0.000  -0.000  -0.000   0.000   0.000  -0.000  -0.000
 -0.000   0.000  -0.000  -0.000  -0.000  -0.000   0.000  -0.000
 -0.000  -0.000  -0.000  -0.000  -0.000  -0.000  -0.000  -0.000
  0.000  -0.000  -0.000  -0.000   0.000   0.000  -0.000  -0.000
 total augmentation occupancy for first ion, spin component:           1
  2.944   0.000  -0.002  -0.400  -0.002  -1.340  -0.000   0.001   0.187   0.001   0.000   0.000  -0.000   0.000   0.000   0.000
  0.000   3.225   0.001  -0.002  -0.400  -0.000  -1.471  -0.000   0.001   0.186   0.000   0.000   0.000  -0.000  -0.000  -0.000
 -0.002   0.001   2.660  -0.001   0.001   0.001  -0.000  -1.208   0.001  -0.001   0.000   0.000   0.000   0.000   0.000   0.000
 -0.400  -0.002  -0.001   3.227   0.000   0.187   0.001   0.001  -1.472  -0.000  -0.001  -0.000   0.000  -0.000  -0.000  -0.000
 -0.002  -0.400   0.001   0.000   2.942   0.001   0.186  -0.001  -0.000  -1.339  -0.000  -0.000  -0.000   0.000   0.000   0.000
 -1.340  -0.000   0.001   0.187   0.001   1.488   0.000  -0.001  -0.030  -0.001  -0.000  -0.000  -0.000  -0.000  -0.000   0.000
 -0.000  -1.471  -0.000   0.001   0.186   0.000   1.508   0.000  -0.001  -0.030  -0.000  -0.000  -0.000  -0.000   0.000   0.000
  0.001  -0.000  -1.208   0.001  -0.001  -0.001   0.000   1.466  -0.000   0.000  -0.000  -0.000  -0.000  -0.000  -0.000   0.000
  0.187   0.001   0.001  -1.472  -0.000  -0.030  -0.001  -0.000   1.509   0.000   0.000   0.000  -0.000  -0.000   0.000   0.000
  0.001   0.186  -0.001  -0.000  -1.339  -0.001  -0.030   0.000   0.000   1.487   0.000   0.000   0.000  -0.000   0.000  -0.000
  0.000   0.000   0.000  -0.001  -0.000  -0.000  -0.000  -0.000   0.000   0.000   2.335  -0.329  -0.000   0.000   0.000   0.000
  0.000   0.000   0.000  -0.000  -0.000  -0.000  -0.000  -0.000   0.000   0.000  -0.329   0.053  -0.000  -0.000  -0.000  -0.000
 -0.000   0.000   0.000   0.000  -0.000  -0.000  -0.000  -0.000  -0.000   0.000   0.000  -0.000   0.309   0.000   0.000  -0.034
  0.000  -0.000   0.000  -0.000   0.000  -0.000  -0.000  -0.000  -0.000  -0.000   0.000  -0.000   0.000   0.309  -0.000  -0.000
  0.000  -0.000   0.000  -0.000   0.000  -0.000   0.000  -0.000   0.000   0.000  -0.000  -0.000   0.000  -0.000   0.309  -0.000
  0.000  -0.000   0.000  -0.000   0.000   0.000   0.000   0.000   0.000  -0.000   0.000  -0.000  -0.034  -0.000  -0.000   0.004
 -0.000   0.000   0.000   0.000  -0.000   0.000   0.000   0.000   0.000   0.000  -0.000   0.000  -0.000  -0.034   0.000   0.000
 -0.000   0.000   0.000   0.000  -0.000   0.000  -0.000   0.000  -0.000  -0.000  -0.000   0.000  -0.000   0.000  -0.034   0.000
 total augmentation occupancy for first ion, spin component:           2
  0.001   0.000   0.001   0.000   0.000  -0.001  -0.000  -0.000  -0.000  -0.000  -0.000  -0.000  -0.000  -0.000   0.000   0.000
  0.000   0.001  -0.000   0.000   0.001  -0.000  -0.001   0.000  -0.000  -0.000  -0.000  -0.000   0.000  -0.000  -0.000  -0.000
  0.001  -0.000   0.002   0.000  -0.000  -0.000   0.000  -0.001  -0.000   0.000  -0.000  -0.000  -0.000  -0.000  -0.000   0.000
  0.000   0.000   0.000   0.001   0.000  -0.000  -0.000  -0.000  -0.000  -0.000   0.000   0.000  -0.000  -0.000  -0.000   0.000
  0.000   0.001  -0.000   0.000   0.002  -0.000  -0.000   0.000  -0.000  -0.001   0.000   0.000  -0.000  -0.000   0.000   0.000
 -0.001  -0.000  -0.000  -0.000  -0.000   0.000   0.000   0.000   0.000   0.000   0.000   0.000   0.000   0.000  -0.000  -0.000
 -0.000  -0.001   0.000  -0.000  -0.000   0.000   0.000  -0.000   0.000   0.000   0.000   0.000  -0.000   0.000   0.000   0.000
 -0.000   0.000  -0.001  -0.000   0.000   0.000  -0.000   0.000   0.000  -0.000   0.000   0.000   0.000   0.000   0.000  -0.000
 -0.000  -0.000  -0.000  -0.000  -0.000   0.000   0.000   0.000   0.000   0.000  -0.000  -0.000   0.000   0.000   0.000  -0.000
 -0.000  -0.000   0.000  -0.000  -0.001   0.000   0.000  -0.000   0.000   0.000  -0.000  -0.000   0.000   0.000  -0.000  -0.000
 -0.000  -0.000  -0.000   0.000   0.000   0.000   0.000   0.000  -0.000  -0.000  -0.000   0.000   0.000   0.000  -0.000   0.000
 -0.000  -0.000  -0.000   0.000   0.000   0.000   0.000   0.000  -0.000  -0.000   0.000  -0.000   0.000  -0.000   0.000  -0.000
 -0.000   0.000  -0.000  -0.000  -0.000   0.000  -0.000   0.000   0.000   0.000  -0.000   0.000  -0.000   0.000   0.000   0.000
 -0.000  -0.000  -0.000  -0.000  -0.000   0.000   0.000   0.000   0.000   0.000   0.000   0.000   0.000  -0.000  -0.000  -0.000
  0.000  -0.000  -0.000  -0.000   0.000  -0.000   0.000   0.000   0.000  -0.000  -0.000   0.000   0.000  -0.000  -0.000  -0.000
  0.000  -0.000   0.000   0.000   0.000  -0.000   0.000  -0.000  -0.000  -0.000   0.000  -0.000   0.000  -0.000  -0.000  -0.000
  0.000   0.000   0.000   0.000   0.000  -0.000  -0.000  -0.000  -0.000  -0.000  -0.000  -0.000  -0.000   0.000   0.000   0.000
 -0.000  -0.000   0.000   0.000  -0.000   0.000  -0.000  -0.000  -0.000   0.000   0.000  -0.000  -0.000   0.000   0.000   0.000


------------------------ aborting loop because EDIFF is reached ----------------------------------------


 


 total charge     
 
# of ion       s       p       d       tot
------------------------------------------
    1        0.500   0.505   8.331   9.335
    2        0.500   0.505   8.331   9.335
    3        0.500   0.505   8.331   9.335
    4        0.500   0.505   8.331   9.335
--------------------------------------------------
tot          1.998   2.018  33.322  37.338
 


 magnetization (x)
 
# of ion       s       p       d       tot
------------------------------------------
    1        0.000   0.000   0.000   0.000
    2        0.000   0.000   0.000   0.000
    3       -0.000  -0.000  -0.000  -0.000
    4       -0.000  -0.000  -0.000  -0.000
--------------------------------------------------
tot          0.000   0.000   0.000   0.000
 
    CHARGE:  cpu time    0.2775: real time    0.2781
    FORLOC:  cpu time    0.0009: real time    0.0009
    FORNL :  cpu time    0.4614: real time    0.4625
    STRESS:  cpu time    0.9625: real time    0.9647
    FORCOR:  cpu time    0.0280: real time    0.0280
    FORHAR:  cpu time    0.0033: real time    0.0033
    MIXING:  cpu time    0.0013: real time    0.0013
    OFIELD:  cpu time    0.0000: real time    0.0000

  FORCE on cell =-STRESS in cart. coord.  units (eV):
  Direction    XX          YY          ZZ          XY          YZ          ZX
  --------------------------------------------------------------------------------------
  Alpha Z   189.89775   189.89775   189.89775
  Ewald   -1256.61684 -1256.61684 -1256.61679     0.00002    -0.00000     0.00001
  Hartree   296.82789   296.83516   296.83150     0.00630     0.00516    -0.00894
  E(xc)    -220.09767  -220.09783  -220.09774    -0.00015    -0.00012     0.00022
  Local       4.59861     4.57719     4.58827    -0.01857    -0.01525     0.02641
  n-local   -27.92761   -31.71160   -34.16319     0.68536     1.29990     0.43481
  augment   703.94747   703.95283   703.94975     0.00463     0.00388    -0.00672
  Kinetic   316.40152   310.96894   311.98864     0.53383    -2.46321    -2.16096
  Fock        0.00000     0.00000     0.00000     0.00000     0.00000     0.00000
  -------------------------------------------------------------------------------------
  Total       0.40287     0.40706     0.40497     0.00363     0.00296    -0.00513
  in kB      15.02145    15.17765    15.09955     0.13527     0.11044    -0.19129
  external pressure =       15.10 kB  Pullay stress =        0.00 kB


 VOLUME and BASIS-vectors are now :
 -----------------------------------------------------------------------------
  energy-cutoff  :      520.00
  volume of cell :       42.97
      direct lattice vectors                 reciprocal lattice vectors
    -2.476700100 -1.429923470  2.022217100    -0.302822292 -0.058278184  0.082417786
     1.238350000 -0.714961740  4.044434200     0.201881528 -0.116556350  0.164835585
    -0.000000100  2.859846930  2.022217100    -0.100940764  0.291390884  0.082417790

  length of vectors
     3.502582835  4.289770275  3.502582827     0.319202723  0.285503598  0.319202721


 FORCES acting on ions
    electron-ion (+dipol)            ewald-force                    non-local-force                 convergence-correction
 -----------------------------------------------------------------------------------------------
   -.969E-13 -.341E-12 -.504E-13   -.349E-14 0.118E-13 0.219E-14   0.893E-22 0.993E-22 0.761E-22   -.408E-09 -.708E-09 -.353E-11
   -.869E-12 -.362E-11 -.120E-11   -.386E-14 0.257E-14 -.890E-15   -.950E-22 -.132E-21 -.106E-21   0.408E-09 0.708E-09 0.348E-11
   -.574E-12 0.636E-11 0.530E-11   0.329E-15 -.616E-15 0.359E-14   0.147E-21 -.496E-22 0.331E-22   -.408E-09 -.708E-09 -.354E-11
   -.101E-11 0.112E-11 -.103E-12   0.484E-14 -.893E-14 -.442E-14   -.143E-21 0.190E-22 0.430E-22   0.408E-09 0.708E-09 0.353E-11
 -----------------------------------------------------------------------------------------------
   -.255E-11 0.352E-11 0.394E-11   -.218E-14 0.486E-14 0.458E-15   -.157E-23 -.637E-22 0.463E-22   -.237E-13 0.457E-14 -.593E-13
 
 
 POSITION                                       TOTAL-FORCE (eV/Angst)
 -----------------------------------------------------------------------------------
      0.00000      0.00000      0.00000         0.000000      0.000000     -0.000000
     -1.23835     -0.71496      4.04443        -0.000000     -0.000000     -0.000000
     -1.23835      0.71496      2.02222         0.000000      0.000000      0.000000
     -0.00000      1.42992      4.04443         0.000000     -0.000000      0.000000
 -----------------------------------------------------------------------------------
    total drift:                               -0.000000      0.000000      0.000000


--------------------------------------------------------------------------------------------------------



  FREE ENERGIE OF THE ION-ELECTRON SYSTEM (eV)
  ---------------------------------------------------
  free  energy   TOTEN  =       -21.66506206 eV

  energy  without entropy=      -21.61575671  energy(sigma->0) =      -21.64862694
 


--------------------------------------------------------------------------------------------------------


    POTLOK:  cpu time    0.5420: real time    0.5433


--------------------------------------------------------------------------------------------------------


     LOOP+:  cpu time   72.3701: real time   72.5747
    4ORBIT:  cpu time    0.0000: real time    0.0000
 


 total charge     
 
# of ion       s       p       d       tot
------------------------------------------
    1        0.500   0.505   8.331   9.335
    2        0.500   0.505   8.331   9.335
    3        0.500   0.505   8.331   9.335
    4        0.500   0.505   8.331   9.335
--------------------------------------------------
tot          1.998   2.018  33.322  37.338
 


 magnetization (x)
 
# of ion       s       p       d       tot
------------------------------------------
    1        0.000   0.000   0.000   0.000
    2        0.000   0.000   0.000   0.000
    3       -0.000  -0.000  -0.000  -0.000
    4       -0.000  -0.000  -0.000  -0.000
--------------------------------------------------
tot          0.000   0.000   0.000   0.000
 

 total amount of memory used by VASP MPI-rank0    72233. kBytes
=======================================================================

   base      :      30000. kBytes
   nonl-proj :      21849. kBytes
   fftplans  :        982. kBytes
   grid      :       3892. kBytes
   one-center:        124. kBytes
   wavefun   :      15386. kBytes
 
  
  
 General timing and accounting informations for this job:
 ========================================================
  
                  Total CPU time used (sec):       74.391
                            User time (sec):       73.744
                          System time (sec):        0.648
                         Elapsed time (sec):       75.565
  
                   Maximum memory used (kb):      106904.
                   Average memory used (kb):           0.
  
                          Minor page faults:        36239
                          Major page faults:            0
                 Voluntary context switches:         1387
