       N       E                     dE             d eps       ncg     rms          rms(c)
DAV:   1     0.117073140608E+04    0.11707E+04   -0.31506E+04 26904   0.314E+03
DAV:   2     0.303416803217E+03   -0.86731E+03   -0.79235E+03 32520   0.635E+02
DAV:   3    -0.131666913187E+02   -0.31658E+03   -0.30987E+03 36312   0.333E+02
DAV:   4    -0.596468620541E+02   -0.46480E+02   -0.45574E+02 42840   0.125E+02
DAV:   5    -0.638960661714E+02   -0.42492E+01   -0.40845E+01 46952   0.396E+01    0.276E+01
DAV:   6    -0.752628893131E+02   -0.11367E+02   -0.95058E+01 38296   0.105E+02    0.330E+01
DAV:   7    -0.767282886480E+02   -0.14654E+01   -0.30986E+01 35608   0.612E+01    0.151E+01
DAV:   8    -0.745878500597E+02    0.21404E+01   -0.96230E+00 33784   0.475E+01    0.668E+00
DAV:   9    -0.751363542410E+02   -0.54850E+00   -0.10181E+01 41048   0.211E+01    0.722E+00
DAV:  10    -0.749223732453E+02    0.21398E+00   -0.22436E+00 36704   0.147E+01    0.400E+00
DAV:  11    -0.749714848714E+02   -0.49112E-01   -0.63818E-01 45816   0.597E+00    0.287E+00
DAV:  12    -0.749522372550E+02    0.19248E-01   -0.13408E-01 40960   0.263E+00    0.163E+00
DAV:  13    -0.749293126692E+02    0.22925E-01   -0.54181E-02 41096   0.192E+00    0.859E-01
DAV:  14    -0.749236853747E+02    0.56273E-02   -0.18978E-02 44888   0.890E-01    0.376E-01
DAV:  15    -0.749231997948E+02    0.48558E-03   -0.82848E-03 41848   0.653E-01    0.100E-01
DAV:  16    -0.749235473173E+02   -0.34752E-03   -0.15406E-03 47184   0.278E-01    0.140E-01
DAV:  17    -0.749234034377E+02    0.14388E-03   -0.41821E-04 41144   0.192E-01    0.769E-02
DAV:  18    -0.749233802146E+02    0.23223E-04   -0.12307E-04 46056   0.957E-02    0.359E-02
DAV:  19    -0.749233820747E+02   -0.18600E-05   -0.22356E-05 42088   0.393E-02    0.240E-02
DAV:  20    -0.749233725419E+02    0.95328E-05   -0.84668E-06 27400   0.286E-02    0.605E-03
DAV:  21    -0.749233718276E+02    0.71428E-06   -0.29181E-06 24232   0.156E-02
   1 F= -.74923372E+02 E0= -.74923372E+02  d E =0.000000E+00  mag=    -0.0001
