 vasp.5.4.4.18Apr17-6-g9f103f2a35 (build Apr 28 2018 00:24:27) complex          
  
 executed on             LinuxIFC date 2021.04.17  17:40:26
 running on    8 total cores
 distrk:  each k-point on    8 cores,    1 groups
 distr:  one band on NCORES_PER_BAND=   4 cores,    2 groups


--------------------------------------------------------------------------------------------------------


 INCAR:
 POTCAR:    PAW_PBE Eu 23Dec2003                  
 POTCAR:    PAW_PBE S 06Sep2000                   
 POTCAR:    PAW_PBE Eu 23Dec2003                  
   VRHFIN =Eu : [core=Kr4d]                                                     
   LEXCH  = PE                                                                  
   EATOM  =  2619.8085 eV,  192.5505 Ry                                         
                                                                                
   TITEL  = PAW_PBE Eu 23Dec2003                                                
   LULTRA =        F    use ultrasoft PP ?                                      
   IUNSCR =        1    unscreen: 0-lin 1-nonlin 2-no                           
   RPACOR =    2.300    partial core radius                                     
   POMASS =  151.965; ZVAL   =   17.000    mass and valenz                      
   RCORE  =    2.800    outmost cutoff radius                                   
   RWIGS  =    2.800; RWIGS  =    1.482    wigner-seitz radius (au A)           
   ENMAX  =  249.668; ENMIN  =  187.251 eV                                      
   RCLOC  =    2.308    cutoff for local pot                                    
   LCOR   =        T    correct aug charges                                     
   LPAW   =        T    paw PP                                                  
   EAUG   =  549.628                                                            
   DEXC   =    0.000                                                            
   RMAX   =    2.870    core radius for proj-oper                               
   RAUG   =    1.300    factor for augmentation sphere                          
   RDEP   =    2.887    radius for radial grids                                 
   RDEPT  =    2.221    core radius for aug-charge                              
                                                                                
   Atomic configuration                                                         
   14 entries                                                                   
     n  l   j            E        occ.                                          
     1  0  0.50    -48354.7667   2.0000                                         
     2  0  0.50     -7939.6472   2.0000                                         
     2  1  1.50     -7072.6637   6.0000                                         
     3  0  0.50     -1747.1875   2.0000                                         
     3  1  1.50     -1477.5221   6.0000                                         
     3  2  2.50     -1117.4686  10.0000                                         
     4  0  0.50      -346.8682   2.0000                                         
     4  1  1.50      -258.1962   6.0000                                         
     4  2  2.50      -134.7724  10.0000                                         
     5  0  0.50       -44.6510   2.0000                                         
     6  0  0.50        -3.6227   2.0000                                         
     5  1  1.50       -23.7639   6.0000                                         
     5  2  2.50        -1.3130   0.0000                                         
     4  3  2.50        -2.7310   7.0000                                         
   Description                                                                  
     l       E           TYP  RCUT    TYP  RCUT                                 
     0    -44.6510453     23  2.400                                             
     0     -3.6226685     23  2.400                                             
     1    -23.7638687     23  2.400                                             
     1     27.2116520     23  2.400                                             
     2     -1.3129622     23  2.500                                             
     2     13.6058260     23  2.500                                             
     3     -2.7309948     23  2.800                                             
     3     -3.4014565     23  2.800                                             
  local pseudopotential read in
  partial core-charges read in
  partial kinetic energy density read in
  atomic valenz-charges read in
  non local Contribution for L=           0  read in
    real space projection operators read in
  non local Contribution for L=           0  read in
    real space projection operators read in
  non local Contribution for L=           1  read in
    real space projection operators read in
  non local Contribution for L=           1  read in
    real space projection operators read in
  non local Contribution for L=           2  read in
    real space projection operators read in
  non local Contribution for L=           2  read in
    real space projection operators read in
  non local Contribution for L=           3  read in
    real space projection operators read in
  non local Contribution for L=           3  read in
    real space projection operators read in
    PAW grid and wavefunctions read in
 
   number of l-projection  operators is LMAX  =           8
   number of lm-projection operators is LMMAX =          32
 
 POTCAR:    PAW_PBE S 06Sep2000                   
   VRHFIN =S : s2p4                                                             
   LEXCH  = PE                                                                  
   EATOM  =   276.8230 eV,   20.3459 Ry                                         
                                                                                
   TITEL  = PAW_PBE S 06Sep2000                                                 
   LULTRA =        F    use ultrasoft PP ?                                      
   IUNSCR =        1    unscreen: 0-lin 1-nonlin 2-no                           
   RPACOR =    1.500    partial core radius                                     
   POMASS =   32.066; ZVAL   =    6.000    mass and valenz                      
   RCORE  =    1.900    outmost cutoff radius                                   
   RWIGS  =    2.200; RWIGS  =    1.164    wigner-seitz radius (au A)           
   ENMAX  =  258.689; ENMIN  =  194.016 eV                                      
   ICORE  =        2    local potential                                         
   LCOR   =        T    correct aug charges                                     
   LPAW   =        T    paw PP                                                  
   EAUG   =  335.092                                                            
   DEXC   =    0.000                                                            
   RMAX   =    1.942    core radius for proj-oper                               
   RAUG   =    1.300    factor for augmentation sphere                          
   RDEP   =    1.954    radius for radial grids                                 
   RDEPT  =    1.744    core radius for aug-charge                              
                                                                                
   Atomic configuration                                                         
    6 entries                                                                   
     n  l   j            E        occ.                                          
     1  0  0.50     -2405.8406   2.0000                                         
     2  0  0.50      -211.7007   2.0000                                         
     2  1  1.50      -156.4958   6.0000                                         
     3  0  0.50       -17.2562   2.0000                                         
     3  1  0.50        -7.0085   4.0000                                         
     3  2  1.50        -6.8029   0.0000                                         
   Description                                                                  
     l       E           TYP  RCUT    TYP  RCUT                                 
     0    -17.2561641     23  1.900                                             
     0    -15.8743224     23  1.900                                             
     1     -7.0085400     23  1.900                                             
     1     -2.7779785     23  1.900                                             
     2     -6.8029130     23  1.900                                             
  local pseudopotential read in
  partial core-charges read in
  partial kinetic energy density read in
  atomic valenz-charges read in
  non local Contribution for L=           0  read in
    real space projection operators read in
  non local Contribution for L=           0  read in
    real space projection operators read in
  non local Contribution for L=           1  read in
    real space projection operators read in
  non local Contribution for L=           1  read in
    real space projection operators read in
    PAW grid and wavefunctions read in
 
   number of l-projection  operators is LMAX  =           4
   number of lm-projection operators is LMMAX =           8
 

 ----------------------------------------------------------------------------- 
|                                                                             |
|  ADVICE TO THIS USER RUNNING 'VASP/VAMP'   (HEAR YOUR MASTER'S VOICE ...):  |
|                                                                             |
|      You have a (more or less) 'small supercell' and for smaller cells      |
|      it is recommended  to use the reciprocal-space projection scheme!      |
|      The real space optimization is not  efficient for small cells and it   |
|      is also less accurate ...                                              |
|      Therefore set LREAL=.FALSE. in the  INCAR file                         |
|                                                                             |
 ----------------------------------------------------------------------------- 

 Optimization of the real space projectors (new method)

 maximal supplied QI-value         = 13.42
 optimisation between [QCUT,QGAM] = [ 11.67, 23.35] = [ 38.16,152.62] Ry 
 Optimized for a Real-space Cutoff    1.63 Angstroem

   l    n(q)    QCUT    max X(q) W(low)/X(q) W(high)/X(q)  e(spline) 
   0     11    11.673    10.400    0.14E-04    0.18E-05    0.24E-07
   0     11    11.673    10.768    0.21E-04    0.32E-05    0.49E-07
   1     11    11.673     4.094    0.40E-05    0.13E-04    0.93E-07
   1     11    11.673     4.009    0.11E-04    0.46E-04    0.33E-06
   2     10    11.673    29.030    0.79E-04    0.60E-04    0.70E-06
   2     10    11.673    19.941    0.80E-04    0.60E-04    0.71E-06
   3     10    11.673    88.889    0.23E-03    0.29E-03    0.30E-06
   3     10    11.673    76.102    0.23E-03    0.30E-03    0.30E-06
 Optimization of the real space projectors (new method)

 maximal supplied QI-value         = 19.84
 optimisation between [QCUT,QGAM] = [ 11.51, 23.22] = [ 37.09,150.92] Ry 
 Optimized for a Real-space Cutoff    1.21 Angstroem

   l    n(q)    QCUT    max X(q) W(low)/X(q) W(high)/X(q)  e(spline) 
   0      8    11.508   187.594    0.96E-04    0.18E-03    0.54E-07
   0      8    11.508   164.243    0.96E-04    0.18E-03    0.54E-07
   1      8    11.508    67.533    0.18E-03    0.65E-04    0.94E-07
   1      8    11.508    50.729    0.18E-03    0.63E-04    0.92E-07
  PAW_PBE Eu 23Dec2003                  :
 energy of atom  1       EATOM=-2619.8085
 kinetic energy error for atom=    0.0015 (will be added to EATOM!!)
  PAW_PBE S 06Sep2000                   :
 energy of atom  2       EATOM= -276.8230
 kinetic energy error for atom=    0.0016 (will be added to EATOM!!)
 
 
 POSCAR: Eu4 S4                                  
  positions in direct lattice
  velocities in cartesian coordinates
 exchange correlation table for  LEXCH =        8
   RHO(1)=    0.500       N(1)  =     2000
   RHO(2)=  100.500       N(2)  =     4000
 


--------------------------------------------------------------------------------------------------------


 ion  position               nearest neighbor table
   1  0.000  0.000  0.500-   5 2.92   5 2.92   6 2.92   6 2.92   8 2.93   8 2.93
   2  0.500  0.500  0.750-   6 2.92   6 2.92   5 2.92   5 2.92   7 2.93   7 2.93
   3  0.000  1.000  0.000-   7 2.92   7 2.92   8 2.92   8 2.92   6 2.93   6 2.93
   4  0.500  0.500  0.250-   8 2.92   8 2.92   7 2.92   7 2.92   5 2.93   5 2.93
   5  0.000  0.500  0.500-   1 2.92   1 2.92   2 2.92   2 2.92   4 2.93   4 2.93
   6  0.500  1.000  0.750-   2 2.92   2 2.92   1 2.92   1 2.92   3 2.93   3 2.93
   7  0.000  0.500  0.000-   3 2.92   3 2.92   4 2.92   4 2.92   2 2.93   2 2.93
   8  0.500  0.000  0.250-   4 2.92   4 2.92   3 2.92   3 2.92   1 2.93   1 2.93
 
  LATTYP: Found a simple monoclinic cell.
 ALAT       =    10.1332406141
 B/A-ratio  =     0.4074815369
 C/A-ratio  =     1.4128250089
 COS(beta)  =    -0.9428092903
  
  Lattice vectors:
  
 A1 = (   0.0000000000,   0.0140733295, -10.1332308414)
 A2 = (  -4.1291084590,   0.0000000000,   0.0000000000)
 A3 = (   0.0000000000,   4.7534045612,  13.5043398932)


Analysis of symmetry for initial positions (statically):
=====================================================================
 Subroutine PRICEL returns:
 Original cell was already a primitive cell.
 

 Routine SETGRP: Setting up the symmetry group for a 
 simple monoclinic supercell.


 Subroutine GETGRP returns: Found  4 space group operations
 (whereof  2 operations were pure point group operations)
 out of a pool of  4 trial point group operations.


The static configuration has the point symmetry C_1h.
 The point group associated with its full space group is C_2h.


Analysis of symmetry for dynamics (positions and initial velocities):
=====================================================================
 Subroutine PRICEL returns:
 Original cell was already a primitive cell.
 

 Routine SETGRP: Setting up the symmetry group for a 
 simple monoclinic supercell.


 Subroutine GETGRP returns: Found  4 space group operations
 (whereof  2 operations were pure point group operations)
 out of a pool of  4 trial point group operations.


The dynamic configuration has the point symmetry C_1h.
 The point group associated with its full space group is C_2h.


Analysis of structural, dynamic, and magnetic symmetry:
=====================================================================
 Subroutine PRICEL returns:
 Original cell was already a primitive cell.
 

 Routine SETGRP: Setting up the symmetry group for a 
 simple monoclinic supercell.


 Subroutine GETGRP returns: Found  4 space group operations
 (whereof  2 operations were pure point group operations)
 out of a pool of  4 trial point group operations.


The magnetic configuration has the point symmetry C_1h.
 The point group associated with its full space group is C_2h.


 Subroutine INISYM returns: Found  4 space group operations
 (whereof  2 operations are pure point group operations),
 and found     1 'primitive' translations

 
 
 KPOINTS: pymatgen v2019.10.16 with grid density =

Automatic generation of k-mesh.
Space group operators:
 irot       det(A)        alpha          n_x          n_y          n_z        tau_x        tau_y        tau_z
    1     1.000000     0.000000     1.000000     0.000000     0.000000     0.000000     0.000000     0.000000
    2    -1.000000   180.000000     1.000000     0.000000     0.000000     0.000000     0.000000     0.000000
    3    -1.000000     0.000000     1.000000     0.000000     0.000000    -0.500000     0.500000     0.250000
    4     1.000000   180.000000     1.000000     0.000000     0.000000    -0.500000     0.500000     0.250000
 
 Subroutine IBZKPT returns following result:
 ===========================================
 
 Found    108 irreducible k-points:
 
 Following reciprocal coordinates:
            Coordinates               Weight
  0.000000  0.000000  0.000000      1.000000
  0.100000  0.000000  0.000000      2.000000
  0.200000  0.000000  0.000000      2.000000
  0.300000  0.000000  0.000000      2.000000
  0.400000  0.000000  0.000000      2.000000
  0.500000  0.000000  0.000000      1.000000
  0.000000  0.142857  0.000000      2.000000
  0.100000  0.142857  0.000000      4.000000
  0.200000  0.142857  0.000000      4.000000
  0.300000  0.142857  0.000000      4.000000
  0.400000  0.142857  0.000000      4.000000
  0.500000  0.142857  0.000000      2.000000
  0.000000  0.285714  0.000000      2.000000
  0.100000  0.285714  0.000000      4.000000
  0.200000  0.285714  0.000000      4.000000
  0.300000  0.285714  0.000000      4.000000
  0.400000  0.285714  0.000000      4.000000
  0.500000  0.285714  0.000000      2.000000
  0.000000  0.428571  0.000000      2.000000
  0.100000  0.428571  0.000000      4.000000
  0.200000  0.428571  0.000000      4.000000
  0.300000  0.428571  0.000000      4.000000
  0.400000  0.428571  0.000000      4.000000
  0.500000  0.428571  0.000000      2.000000
  0.000000  0.000000  0.200000      2.000000
  0.100000  0.000000  0.200000      4.000000
  0.200000  0.000000  0.200000      4.000000
  0.300000  0.000000  0.200000      4.000000
  0.400000  0.000000  0.200000      4.000000
  0.500000  0.000000  0.200000      2.000000
  0.000000  0.142857  0.200000      2.000000
  0.100000  0.142857  0.200000      4.000000
  0.200000  0.142857  0.200000      4.000000
  0.300000  0.142857  0.200000      4.000000
  0.400000  0.142857  0.200000      4.000000
  0.500000  0.142857  0.200000      2.000000
  0.000000  0.285714  0.200000      2.000000
  0.100000  0.285714  0.200000      4.000000
  0.200000  0.285714  0.200000      4.000000
  0.300000  0.285714  0.200000      4.000000
  0.400000  0.285714  0.200000      4.000000
  0.500000  0.285714  0.200000      2.000000
  0.000000  0.428571  0.200000      2.000000
  0.100000  0.428571  0.200000      4.000000
  0.200000  0.428571  0.200000      4.000000
  0.300000  0.428571  0.200000      4.000000
  0.400000  0.428571  0.200000      4.000000
  0.500000  0.428571  0.200000      2.000000
  0.000000 -0.428571  0.200000      2.000000
  0.100000 -0.428571  0.200000      4.000000
  0.200000 -0.428571  0.200000      4.000000
  0.300000 -0.428571  0.200000      4.000000
  0.400000 -0.428571  0.200000      4.000000
  0.500000 -0.428571  0.200000      2.000000
  0.000000 -0.285714  0.200000      2.000000
  0.100000 -0.285714  0.200000      4.000000
  0.200000 -0.285714  0.200000      4.000000
  0.300000 -0.285714  0.200000      4.000000
  0.400000 -0.285714  0.200000      4.000000
  0.500000 -0.285714  0.200000      2.000000
  0.000000 -0.142857  0.200000      2.000000
  0.100000 -0.142857  0.200000      4.000000
  0.200000 -0.142857  0.200000      4.000000
  0.300000 -0.142857  0.200000      4.000000
  0.400000 -0.142857  0.200000      4.000000
  0.500000 -0.142857  0.200000      2.000000
  0.000000  0.000000  0.400000      2.000000
  0.100000  0.000000  0.400000      4.000000
  0.200000  0.000000  0.400000      4.000000
  0.300000  0.000000  0.400000      4.000000
  0.400000  0.000000  0.400000      4.000000
  0.500000  0.000000  0.400000      2.000000
  0.000000  0.142857  0.400000      2.000000
  0.100000  0.142857  0.400000      4.000000
  0.200000  0.142857  0.400000      4.000000
  0.300000  0.142857  0.400000      4.000000
  0.400000  0.142857  0.400000      4.000000
  0.500000  0.142857  0.400000      2.000000
  0.000000  0.285714  0.400000      2.000000
  0.100000  0.285714  0.400000      4.000000
  0.200000  0.285714  0.400000      4.000000
  0.300000  0.285714  0.400000      4.000000
  0.400000  0.285714  0.400000      4.000000
  0.500000  0.285714  0.400000      2.000000
  0.000000  0.428571  0.400000      2.000000
  0.100000  0.428571  0.400000      4.000000
  0.200000  0.428571  0.400000      4.000000
  0.300000  0.428571  0.400000      4.000000
  0.400000  0.428571  0.400000      4.000000
  0.500000  0.428571  0.400000      2.000000
  0.000000 -0.428571  0.400000      2.000000
  0.100000 -0.428571  0.400000      4.000000
  0.200000 -0.428571  0.400000      4.000000
  0.300000 -0.428571  0.400000      4.000000
  0.400000 -0.428571  0.400000      4.000000
  0.500000 -0.428571  0.400000      2.000000
  0.000000 -0.285714  0.400000      2.000000
  0.100000 -0.285714  0.400000      4.000000
  0.200000 -0.285714  0.400000      4.000000
  0.300000 -0.285714  0.400000      4.000000
  0.400000 -0.285714  0.400000      4.000000
  0.500000 -0.285714  0.400000      2.000000
  0.000000 -0.142857  0.400000      2.000000
  0.100000 -0.142857  0.400000      4.000000
  0.200000 -0.142857  0.400000      4.000000
  0.300000 -0.142857  0.400000      4.000000
  0.400000 -0.142857  0.400000      4.000000
  0.500000 -0.142857  0.400000      2.000000
 
 Following cartesian coordinates:
            Coordinates               Weight
  0.000000  0.000000  0.000000      1.000000
  0.024218  0.000000  0.000000      2.000000
  0.048437  0.000000  0.000000      2.000000
  0.072655  0.000000  0.000000      2.000000
  0.096873  0.000000  0.000000      2.000000
  0.121092  0.000000  0.000000      1.000000
  0.000000  0.019977  0.014126      2.000000
  0.024218  0.019977  0.014126      4.000000
  0.048437  0.019977  0.014126      4.000000
  0.072655  0.019977  0.014126      4.000000
  0.096873  0.019977  0.014126      4.000000
  0.121092  0.019977  0.014126      2.000000
  0.000000  0.039953  0.028251      2.000000
  0.024218  0.039953  0.028251      4.000000
  0.048437  0.039953  0.028251      4.000000
  0.072655  0.039953  0.028251      4.000000
  0.096873  0.039953  0.028251      4.000000
  0.121092  0.039953  0.028251      2.000000
  0.000000  0.059930  0.042377      2.000000
  0.024218  0.059930  0.042377      4.000000
  0.048437  0.059930  0.042377      4.000000
  0.072655  0.059930  0.042377      4.000000
  0.096873  0.059930  0.042377      4.000000
  0.121092  0.059930  0.042377      2.000000
  0.000000 -0.013942  0.019718      2.000000
  0.024218 -0.013942  0.019718      4.000000
  0.048437 -0.013942  0.019718      4.000000
  0.072655 -0.013942  0.019718      4.000000
  0.096873 -0.013942  0.019718      4.000000
  0.121092 -0.013942  0.019718      2.000000
  0.000000  0.006034  0.033843      2.000000
  0.024218  0.006034  0.033843      4.000000
  0.048437  0.006034  0.033843      4.000000
  0.072655  0.006034  0.033843      4.000000
  0.096873  0.006034  0.033843      4.000000
  0.121092  0.006034  0.033843      2.000000
  0.000000  0.026011  0.047969      2.000000
  0.024218  0.026011  0.047969      4.000000
  0.048437  0.026011  0.047969      4.000000
  0.072655  0.026011  0.047969      4.000000
  0.096873  0.026011  0.047969      4.000000
  0.121092  0.026011  0.047969      2.000000
  0.000000  0.045987  0.062095      2.000000
  0.024218  0.045987  0.062095      4.000000
  0.048437  0.045987  0.062095      4.000000
  0.072655  0.045987  0.062095      4.000000
  0.096873  0.045987  0.062095      4.000000
  0.121092  0.045987  0.062095      2.000000
  0.000000 -0.073872 -0.022659      2.000000
  0.024218 -0.073872 -0.022659      4.000000
  0.048437 -0.073872 -0.022659      4.000000
  0.072655 -0.073872 -0.022659      4.000000
  0.096873 -0.073872 -0.022659      4.000000
  0.121092 -0.073872 -0.022659      2.000000
  0.000000 -0.053896 -0.008534      2.000000
  0.024218 -0.053896 -0.008534      4.000000
  0.048437 -0.053896 -0.008534      4.000000
  0.072655 -0.053896 -0.008534      4.000000
  0.096873 -0.053896 -0.008534      4.000000
  0.121092 -0.053896 -0.008534      2.000000
  0.000000 -0.033919  0.005592      2.000000
  0.024218 -0.033919  0.005592      4.000000
  0.048437 -0.033919  0.005592      4.000000
  0.072655 -0.033919  0.005592      4.000000
  0.096873 -0.033919  0.005592      4.000000
  0.121092 -0.033919  0.005592      2.000000
  0.000000 -0.027885  0.039435      2.000000
  0.024218 -0.027885  0.039435      4.000000
  0.048437 -0.027885  0.039435      4.000000
  0.072655 -0.027885  0.039435      4.000000
  0.096873 -0.027885  0.039435      4.000000
  0.121092 -0.027885  0.039435      2.000000
  0.000000 -0.007908  0.053561      2.000000
  0.024218 -0.007908  0.053561      4.000000
  0.048437 -0.007908  0.053561      4.000000
  0.072655 -0.007908  0.053561      4.000000
  0.096873 -0.007908  0.053561      4.000000
  0.121092 -0.007908  0.053561      2.000000
  0.000000  0.012068  0.067687      2.000000
  0.024218  0.012068  0.067687      4.000000
  0.048437  0.012068  0.067687      4.000000
  0.072655  0.012068  0.067687      4.000000
  0.096873  0.012068  0.067687      4.000000
  0.121092  0.012068  0.067687      2.000000
  0.000000  0.032045  0.081812      2.000000
  0.024218  0.032045  0.081812      4.000000
  0.048437  0.032045  0.081812      4.000000
  0.072655  0.032045  0.081812      4.000000
  0.096873  0.032045  0.081812      4.000000
  0.121092  0.032045  0.081812      2.000000
  0.000000 -0.087815 -0.002942      2.000000
  0.024218 -0.087815 -0.002942      4.000000
  0.048437 -0.087815 -0.002942      4.000000
  0.072655 -0.087815 -0.002942      4.000000
  0.096873 -0.087815 -0.002942      4.000000
  0.121092 -0.087815 -0.002942      2.000000
  0.000000 -0.067838  0.011184      2.000000
  0.024218 -0.067838  0.011184      4.000000
  0.048437 -0.067838  0.011184      4.000000
  0.072655 -0.067838  0.011184      4.000000
  0.096873 -0.067838  0.011184      4.000000
  0.121092 -0.067838  0.011184      2.000000
  0.000000 -0.047862  0.025310      2.000000
  0.024218 -0.047862  0.025310      4.000000
  0.048437 -0.047862  0.025310      4.000000
  0.072655 -0.047862  0.025310      4.000000
  0.096873 -0.047862  0.025310      4.000000
  0.121092 -0.047862  0.025310      2.000000
 
 TETIRR: Found   1035 inequivalent tetrahedra from     2100


--------------------------------------------------------------------------------------------------------




 Dimension of arrays:
   k-points           NKPTS =    108   k-points in BZ     NKDIM =    108   number of bands    NBANDS=     56
   number of dos      NEDOS =    301   number of ions     NIONS =      8
   non local maximal  LDIM  =      8   non local SUM 2l+1 LMDIM =     32
   total plane-waves  NPLWV =  98304
   max r-space proj   IRMAX =   8935   max aug-charges    IRDMAX=  28342
   dimension x,y,z NGX =    32 NGY =   48 NGZ =   64
   dimension x,y,z NGXF=    64 NGYF=   96 NGZF=  128
   support grid    NGXF=    64 NGYF=   96 NGZF=  128
   ions per type =               4   4
   NGX,Y,Z   is equivalent  to a cutoff of  12.88, 13.67, 12.85 a.u.
   NGXF,Y,Z  is equivalent  to a cutoff of  25.77, 27.33, 25.69 a.u.

 SYSTEM =  unknown system                          
 POSCAR =  Eu4 S4                                  

 Startparameter for this run:
   NWRITE =      2    write-flag & timer
   PREC   = accura    normal or accurate (medium, high low for compatibility)
   ISTART =      0    job   : 0-new  1-cont  2-samecut
   ICHARG =      2    charge: 1-file 2-atom 10-const
   ISPIN  =      2    spin polarized calculation?
   LNONCOLLINEAR =      F non collinear calculations
   LSORBIT =      F    spin-orbit coupling
   INIWAV =      1    electr: 0-lowe 1-rand  2-diag
   LASPH  =      T    aspherical Exc in radial PAW
   METAGGA=      F    non-selfconsistent MetaGGA calc.

 Electronic Relaxation 1
   ENCUT  =  520.0 eV  38.22 Ry    6.18 a.u.   7.68 10.86 15.40*2*pi/ulx,y,z
   ENINI  =  520.0     initial cutoff
   ENAUG  =  549.6 eV  augmentation charge cutoff
   NELM   =    120;   NELMIN=  2; NELMDL=  0     # of ELM steps 
   EDIFF  = 0.1E-05   stopping-criterion for ELM
   LREAL  =      T    real-space projection
   NLSPLINE    = F    spline interpolate recip. space projectors
   LCOMPAT=      F    compatible to vasp.4.4
   GGA_COMPAT  = T    GGA compatible to vasp.4.4-vasp.4.6
   LMAXPAW     = -100 max onsite density
   LMAXMIX     =    4 max onsite mixed and CHGCAR
   VOSKOWN=      0    Vosko Wilk Nusair interpolation
   ROPT   =   -0.00025  -0.00025
 Ionic relaxation
   EDIFFG = 0.1E-04   stopping-criterion for IOM
   NSW    =      0    number of steps for IOM
   NBLOCK =      1;   KBLOCK =      1    inner block; outer block 
   IBRION =     -1    ionic relax: 0-MD 1-quasi-New 2-CG
   NFREE  =      0    steps in history (QN), initial steepest desc. (CG)
   ISIF   =      3    stress and relaxation
   IWAVPR =     10    prediction:  0-non 1-charg 2-wave 3-comb
   ISYM   =      2    0-nonsym 1-usesym 2-fastsym
   LCORR  =      T    Harris-Foulkes like correction to forces

   POTIM  = 0.5000    time-step for ionic-motion
   TEIN   =    0.0    initial temperature
   TEBEG  =    0.0;   TEEND  =   0.0 temperature during run
   SMASS  =  -3.00    Nose mass-parameter (am)
   estimated Nose-frequenzy (Omega)   =  0.10E-29 period in steps =****** mass=  -0.390E-27a.u.
   SCALEE = 1.0000    scale energy and forces
   NPACO  =    256;   APACO  = 16.0  distance and # of slots for P.C.
   PSTRESS=    0.0 pullay stress

  Mass of Ions in am
   POMASS = 151.97 32.07
  Ionic Valenz
   ZVAL   =  17.00  6.00
  Atomic Wigner-Seitz radii
   RWIGS  =  -1.00 -1.00
  virtual crystal weights 
   VCA    =   1.00  1.00
   NELECT =      92.0000    total number of electrons
   NUPDOWN=      -1.0000    fix difference up-down

 DOS related values:
   EMIN   =  10.00;   EMAX   =-10.00  energy-range for DOS
   EFERMI =   0.00
   ISMEAR =    -5;   SIGMA  =   0.05  broadening in eV -4-tet -1-fermi 0-gaus

 Electronic relaxation 2 (details)
   IALGO  =     38    algorithm
   LDIAG  =      T    sub-space diagonalisation (order eigenvalues)
   LSUBROT=      F    optimize rotation matrix (better conditioning)
   TURBO    =      0    0=normal 1=particle mesh
   IRESTART =      0    0=no restart 2=restart with 2 vectors
   NREBOOT  =      0    no. of reboots
   NMIN     =      0    reboot dimension
   EREF     =   0.00    reference energy to select bands
   IMIX   =      4    mixing-type and parameters
     AMIX     =   0.40;   BMIX     =  1.00
     AMIX_MAG =   1.60;   BMIX_MAG =  1.00
     AMIN     =   0.10
     WC   =   100.;   INIMIX=   1;  MIXPRE=   1;  MAXMIX= -45

 Intra band minimization:
   WEIMIN = 0.0000     energy-eigenvalue tresh-hold
   EBREAK =  0.45E-08  absolut break condition
   DEPER  =   0.30     relativ break condition  

   TIME   =   0.40     timestep for ELM

  volume/ion in A,a.u.               =      24.96       168.43
  Fermi-wavevector in a.u.,A,eV,Ry     =   1.264438  2.389442 21.753058  1.598805
  Thomas-Fermi vector in A             =   2.397744
 
 Write flags
   LWAVE        =      F    write WAVECAR
   LDOWNSAMPLE  =      F    k-point downsampling of WAVECAR
   LCHARG       =      T    write CHGCAR
   LVTOT        =      F    write LOCPOT, total local potential
   LVHAR        =      F    write LOCPOT, Hartree potential only
   LELF         =      F    write electronic localiz. function (ELF)
   LORBIT       =     11    0 simple, 1 ext, 2 COOP (PROOUT), +10 PAW based schemes


 Dipole corrections
   LMONO  =      F    monopole corrections only (constant potential shift)
   LDIPOL =      F    correct potential (dipole corrections)
   IDIPOL =      0    1-x, 2-y, 3-z, 4-all directions 
   EPSILON=  1.0000000 bulk dielectric constant

 Exchange correlation treatment:
   GGA     =    --    GGA type
   LEXCH   =     8    internal setting for exchange type
   VOSKOWN=      0    Vosko Wilk Nusair interpolation
   LHFCALC =     F    Hartree Fock is set to
   LHFONE  =     F    Hartree Fock one center treatment
   AEXX    =    0.0000 exact exchange contribution

 Linear response parameters
   LEPSILON=     F    determine dielectric tensor
   LRPA    =     F    only Hartree local field effects (RPA)
   LNABLA  =     F    use nabla operator in PAW spheres
   LVEL    =     F    velocity operator in full k-point grid
   LINTERFAST=   F  fast interpolation
   KINTER  =     0    interpolate to denser k-point grid
   CSHIFT  =0.1000    complex shift for real part using Kramers Kronig
   OMEGAMAX=  -1.0    maximum frequency
   DEG_THRESHOLD= 0.2000000E-02 threshold for treating states as degnerate
   RTIME   =   -0.100 relaxation time in fs
  (WPLASMAI=    0.000 imaginary part of plasma frequency in eV, 0.658/RTIME)
   DFIELD  = 0.0000000 0.0000000 0.0000000 field for delta impulse in time
 
 Orbital magnetization related:
   ORBITALMAG=     F  switch on orbital magnetization
   LCHIMAG   =     F  perturbation theory with respect to B field
   DQ        =  0.001000  dq finite difference perturbation B field
   LLRAUG    =     F  two centre corrections for induced B field



--------------------------------------------------------------------------------------------------------


 Static calculation
 charge density and potential will be updated during run
 spin polarized calculation
 Variant of blocked Davidson
 Davidson routine will perform the subspace rotation
 perform sub-space diagonalisation
    after iterative eigenvector-optimisation
 modified Broyden-mixing scheme, WC =      100.0
 initial mixing is a Kerker type mixing with AMIX =  0.4000 and BMIX =      1.0000
 Hartree-type preconditioning will be used
 using additional bands           10
 real space projection scheme for non local part
 use partial core corrections
 calculate Harris-corrections to forces 
   (improved forces if not selfconsistent)
 use gradient corrections 
 use of overlap-Matrix (Vanderbilt PP)
 Fermi weights with tetrahedron method with Bloechl corrections


--------------------------------------------------------------------------------------------------------


  energy-cutoff  :      520.00
  volume of cell :      199.67
      direct lattice vectors                 reciprocal lattice vectors
     4.129108459  0.000000000  0.000000000     0.242183031  0.000000000  0.000000000
     0.000000000  4.767477891  3.371109052     0.000000000  0.139836349  0.098879418
     0.000000000 -4.781551220  6.762121790     0.000000000 -0.069712377  0.098588390

  length of vectors
     4.129108459  5.838940116  8.281879205     0.242183031  0.171263959  0.120745543


 
 k-points in units of 2pi/SCALE and weight: pymatgen v2019.10.16 with grid density =
   0.00000000  0.00000000  0.00000000       0.003
   0.02421830  0.00000000  0.00000000       0.006
   0.04843661  0.00000000  0.00000000       0.006
   0.07265491  0.00000000  0.00000000       0.006
   0.09687321  0.00000000  0.00000000       0.006
   0.12109152  0.00000000  0.00000000       0.003
   0.00000000  0.01997662  0.01412563       0.006
   0.02421830  0.01997662  0.01412563       0.011
   0.04843661  0.01997662  0.01412563       0.011
   0.07265491  0.01997662  0.01412563       0.011
   0.09687321  0.01997662  0.01412563       0.011
   0.12109152  0.01997662  0.01412563       0.006
   0.00000000  0.03995324  0.02825126       0.006
   0.02421830  0.03995324  0.02825126       0.011
   0.04843661  0.03995324  0.02825126       0.011
   0.07265491  0.03995324  0.02825126       0.011
   0.09687321  0.03995324  0.02825126       0.011
   0.12109152  0.03995324  0.02825126       0.006
   0.00000000  0.05992986  0.04237689       0.006
   0.02421830  0.05992986  0.04237689       0.011
   0.04843661  0.05992986  0.04237689       0.011
   0.07265491  0.05992986  0.04237689       0.011
   0.09687321  0.05992986  0.04237689       0.011
   0.12109152  0.05992986  0.04237689       0.006
   0.00000000 -0.01394248  0.01971768       0.006
   0.02421830 -0.01394248  0.01971768       0.011
   0.04843661 -0.01394248  0.01971768       0.011
   0.07265491 -0.01394248  0.01971768       0.011
   0.09687321 -0.01394248  0.01971768       0.011
   0.12109152 -0.01394248  0.01971768       0.006
   0.00000000  0.00603415  0.03384331       0.006
   0.02421830  0.00603415  0.03384331       0.011
   0.04843661  0.00603415  0.03384331       0.011
   0.07265491  0.00603415  0.03384331       0.011
   0.09687321  0.00603415  0.03384331       0.011
   0.12109152  0.00603415  0.03384331       0.006
   0.00000000  0.02601077  0.04796894       0.006
   0.02421830  0.02601077  0.04796894       0.011
   0.04843661  0.02601077  0.04796894       0.011
   0.07265491  0.02601077  0.04796894       0.011
   0.09687321  0.02601077  0.04796894       0.011
   0.12109152  0.02601077  0.04796894       0.006
   0.00000000  0.04598739  0.06209457       0.006
   0.02421830  0.04598739  0.06209457       0.011
   0.04843661  0.04598739  0.06209457       0.011
   0.07265491  0.04598739  0.06209457       0.011
   0.09687321  0.04598739  0.06209457       0.011
   0.12109152  0.04598739  0.06209457       0.006
   0.00000000 -0.07387234 -0.02265922       0.006
   0.02421830 -0.07387234 -0.02265922       0.011
   0.04843661 -0.07387234 -0.02265922       0.011
   0.07265491 -0.07387234 -0.02265922       0.011
   0.09687321 -0.07387234 -0.02265922       0.011
   0.12109152 -0.07387234 -0.02265922       0.006
   0.00000000 -0.05389572 -0.00853358       0.006
   0.02421830 -0.05389572 -0.00853358       0.011
   0.04843661 -0.05389572 -0.00853358       0.011
   0.07265491 -0.05389572 -0.00853358       0.011
   0.09687321 -0.05389572 -0.00853358       0.011
   0.12109152 -0.05389572 -0.00853358       0.006
   0.00000000 -0.03391910  0.00559205       0.006
   0.02421830 -0.03391910  0.00559205       0.011
   0.04843661 -0.03391910  0.00559205       0.011
   0.07265491 -0.03391910  0.00559205       0.011
   0.09687321 -0.03391910  0.00559205       0.011
   0.12109152 -0.03391910  0.00559205       0.006
   0.00000000 -0.02788495  0.03943536       0.006
   0.02421830 -0.02788495  0.03943536       0.011
   0.04843661 -0.02788495  0.03943536       0.011
   0.07265491 -0.02788495  0.03943536       0.011
   0.09687321 -0.02788495  0.03943536       0.011
   0.12109152 -0.02788495  0.03943536       0.006
   0.00000000 -0.00790833  0.05356099       0.006
   0.02421830 -0.00790833  0.05356099       0.011
   0.04843661 -0.00790833  0.05356099       0.011
   0.07265491 -0.00790833  0.05356099       0.011
   0.09687321 -0.00790833  0.05356099       0.011
   0.12109152 -0.00790833  0.05356099       0.006
   0.00000000  0.01206829  0.06768662       0.006
   0.02421830  0.01206829  0.06768662       0.011
   0.04843661  0.01206829  0.06768662       0.011
   0.07265491  0.01206829  0.06768662       0.011
   0.09687321  0.01206829  0.06768662       0.011
   0.12109152  0.01206829  0.06768662       0.006
   0.00000000  0.03204491  0.08181225       0.006
   0.02421830  0.03204491  0.08181225       0.011
   0.04843661  0.03204491  0.08181225       0.011
   0.07265491  0.03204491  0.08181225       0.011
   0.09687321  0.03204491  0.08181225       0.011
   0.12109152  0.03204491  0.08181225       0.006
   0.00000000 -0.08781481 -0.00294154       0.006
   0.02421830 -0.08781481 -0.00294154       0.011
   0.04843661 -0.08781481 -0.00294154       0.011
   0.07265491 -0.08781481 -0.00294154       0.011
   0.09687321 -0.08781481 -0.00294154       0.011
   0.12109152 -0.08781481 -0.00294154       0.006
   0.00000000 -0.06783819  0.01118409       0.006
   0.02421830 -0.06783819  0.01118409       0.011
   0.04843661 -0.06783819  0.01118409       0.011
   0.07265491 -0.06783819  0.01118409       0.011
   0.09687321 -0.06783819  0.01118409       0.011
   0.12109152 -0.06783819  0.01118409       0.006
   0.00000000 -0.04786157  0.02530972       0.006
   0.02421830 -0.04786157  0.02530972       0.011
   0.04843661 -0.04786157  0.02530972       0.011
   0.07265491 -0.04786157  0.02530972       0.011
   0.09687321 -0.04786157  0.02530972       0.011
   0.12109152 -0.04786157  0.02530972       0.006
 
 k-points in reciprocal lattice and weights: pymatgen v2019.10.16 with grid density =
   0.00000000  0.00000000  0.00000000       0.003
   0.10000000  0.00000000  0.00000000       0.006
   0.20000000  0.00000000  0.00000000       0.006
   0.30000000  0.00000000  0.00000000       0.006
   0.40000000  0.00000000  0.00000000       0.006
   0.50000000  0.00000000  0.00000000       0.003
   0.00000000  0.14285714  0.00000000       0.006
   0.10000000  0.14285714  0.00000000       0.011
   0.20000000  0.14285714  0.00000000       0.011
   0.30000000  0.14285714  0.00000000       0.011
   0.40000000  0.14285714  0.00000000       0.011
   0.50000000  0.14285714  0.00000000       0.006
   0.00000000  0.28571429  0.00000000       0.006
   0.10000000  0.28571429  0.00000000       0.011
   0.20000000  0.28571429  0.00000000       0.011
   0.30000000  0.28571429  0.00000000       0.011
   0.40000000  0.28571429  0.00000000       0.011
   0.50000000  0.28571429  0.00000000       0.006
   0.00000000  0.42857143  0.00000000       0.006
   0.10000000  0.42857143  0.00000000       0.011
   0.20000000  0.42857143  0.00000000       0.011
   0.30000000  0.42857143  0.00000000       0.011
   0.40000000  0.42857143  0.00000000       0.011
   0.50000000  0.42857143  0.00000000       0.006
   0.00000000  0.00000000  0.20000000       0.006
   0.10000000  0.00000000  0.20000000       0.011
   0.20000000  0.00000000  0.20000000       0.011
   0.30000000  0.00000000  0.20000000       0.011
   0.40000000  0.00000000  0.20000000       0.011
   0.50000000  0.00000000  0.20000000       0.006
   0.00000000  0.14285714  0.20000000       0.006
   0.10000000  0.14285714  0.20000000       0.011
   0.20000000  0.14285714  0.20000000       0.011
   0.30000000  0.14285714  0.20000000       0.011
   0.40000000  0.14285714  0.20000000       0.011
   0.50000000  0.14285714  0.20000000       0.006
   0.00000000  0.28571429  0.20000000       0.006
   0.10000000  0.28571429  0.20000000       0.011
   0.20000000  0.28571429  0.20000000       0.011
   0.30000000  0.28571429  0.20000000       0.011
   0.40000000  0.28571429  0.20000000       0.011
   0.50000000  0.28571429  0.20000000       0.006
   0.00000000  0.42857143  0.20000000       0.006
   0.10000000  0.42857143  0.20000000       0.011
   0.20000000  0.42857143  0.20000000       0.011
   0.30000000  0.42857143  0.20000000       0.011
   0.40000000  0.42857143  0.20000000       0.011
   0.50000000  0.42857143  0.20000000       0.006
   0.00000000 -0.42857143  0.20000000       0.006
   0.10000000 -0.42857143  0.20000000       0.011
   0.20000000 -0.42857143  0.20000000       0.011
   0.30000000 -0.42857143  0.20000000       0.011
   0.40000000 -0.42857143  0.20000000       0.011
   0.50000000 -0.42857143  0.20000000       0.006
   0.00000000 -0.28571429  0.20000000       0.006
   0.10000000 -0.28571429  0.20000000       0.011
   0.20000000 -0.28571429  0.20000000       0.011
   0.30000000 -0.28571429  0.20000000       0.011
   0.40000000 -0.28571429  0.20000000       0.011
   0.50000000 -0.28571429  0.20000000       0.006
   0.00000000 -0.14285714  0.20000000       0.006
   0.10000000 -0.14285714  0.20000000       0.011
   0.20000000 -0.14285714  0.20000000       0.011
   0.30000000 -0.14285714  0.20000000       0.011
   0.40000000 -0.14285714  0.20000000       0.011
   0.50000000 -0.14285714  0.20000000       0.006
   0.00000000  0.00000000  0.40000000       0.006
   0.10000000  0.00000000  0.40000000       0.011
   0.20000000  0.00000000  0.40000000       0.011
   0.30000000  0.00000000  0.40000000       0.011
   0.40000000  0.00000000  0.40000000       0.011
   0.50000000  0.00000000  0.40000000       0.006
   0.00000000  0.14285714  0.40000000       0.006
   0.10000000  0.14285714  0.40000000       0.011
   0.20000000  0.14285714  0.40000000       0.011
   0.30000000  0.14285714  0.40000000       0.011
   0.40000000  0.14285714  0.40000000       0.011
   0.50000000  0.14285714  0.40000000       0.006
   0.00000000  0.28571429  0.40000000       0.006
   0.10000000  0.28571429  0.40000000       0.011
   0.20000000  0.28571429  0.40000000       0.011
   0.30000000  0.28571429  0.40000000       0.011
   0.40000000  0.28571429  0.40000000       0.011
   0.50000000  0.28571429  0.40000000       0.006
   0.00000000  0.42857143  0.40000000       0.006
   0.10000000  0.42857143  0.40000000       0.011
   0.20000000  0.42857143  0.40000000       0.011
   0.30000000  0.42857143  0.40000000       0.011
   0.40000000  0.42857143  0.40000000       0.011
   0.50000000  0.42857143  0.40000000       0.006
   0.00000000 -0.42857143  0.40000000       0.006
   0.10000000 -0.42857143  0.40000000       0.011
   0.20000000 -0.42857143  0.40000000       0.011
   0.30000000 -0.42857143  0.40000000       0.011
   0.40000000 -0.42857143  0.40000000       0.011
   0.50000000 -0.42857143  0.40000000       0.006
   0.00000000 -0.28571429  0.40000000       0.006
   0.10000000 -0.28571429  0.40000000       0.011
   0.20000000 -0.28571429  0.40000000       0.011
   0.30000000 -0.28571429  0.40000000       0.011
   0.40000000 -0.28571429  0.40000000       0.011
   0.50000000 -0.28571429  0.40000000       0.006
   0.00000000 -0.14285714  0.40000000       0.006
   0.10000000 -0.14285714  0.40000000       0.011
   0.20000000 -0.14285714  0.40000000       0.011
   0.30000000 -0.14285714  0.40000000       0.011
   0.40000000 -0.14285714  0.40000000       0.011
   0.50000000 -0.14285714  0.40000000       0.006
 
 position of ions in fractional coordinates (direct lattice) 
   0.00000000  0.00000280  0.50049207
   0.50000000  0.49999720  0.74950793
   0.00000000  0.99999681  0.00048176
   0.50000000  0.50000319  0.24951824
   0.00000000  0.50000071  0.50012262
   0.50000000  0.99999929  0.74987738
   0.00000000  0.49999916  0.00013011
   0.50000000  0.00000084  0.24986989
 
 position of ions in cartesian coordinates  (Angst):
   0.00000000 -2.39311513  3.38439782
   2.06455423 -1.20008495  6.75380895
   0.00000000  4.76515915  3.37435599
   2.06455423  1.19066988  3.37283803
   0.00000000 -0.00761961  5.06744700
   2.06455423  1.18189742  8.44186881
   0.00000000  2.38311283  1.68643150
   2.06455423 -1.19476169  1.68965347
 


--------------------------------------------------------------------------------------------------------


 k-point  1 :   0.0000 0.0000 0.0000  plane waves:    5405
 k-point  2 :   0.1000 0.0000 0.0000  plane waves:    5377
 k-point  3 :   0.2000 0.0000 0.0000  plane waves:    5379
 k-point  4 :   0.3000 0.0000 0.0000  plane waves:    5363
 k-point  5 :   0.4000 0.0000 0.0000  plane waves:    5348
 k-point  6 :   0.5000 0.0000 0.0000  plane waves:    5388
 k-point  7 :   0.0000 0.1429 0.0000  plane waves:    5385
 k-point  8 :   0.1000 0.1429 0.0000  plane waves:    5386
 k-point  9 :   0.2000 0.1429 0.0000  plane waves:    5375
 k-point 10 :   0.3000 0.1429 0.0000  plane waves:    5360
 k-point 11 :   0.4000 0.1429 0.0000  plane waves:    5369
 k-point 12 :   0.5000 0.1429 0.0000  plane waves:    5364
 k-point 13 :   0.0000 0.2857 0.0000  plane waves:    5394
 k-point 14 :   0.1000 0.2857 0.0000  plane waves:    5377
 k-point 15 :   0.2000 0.2857 0.0000  plane waves:    5375
 k-point 16 :   0.3000 0.2857 0.0000  plane waves:    5377
 k-point 17 :   0.4000 0.2857 0.0000  plane waves:    5384
 k-point 18 :   0.5000 0.2857 0.0000  plane waves:    5376
 k-point 19 :   0.0000 0.4286 0.0000  plane waves:    5388
 k-point 20 :   0.1000 0.4286 0.0000  plane waves:    5382
 k-point 21 :   0.2000 0.4286 0.0000  plane waves:    5381
 k-point 22 :   0.3000 0.4286 0.0000  plane waves:    5381
 k-point 23 :   0.4000 0.4286 0.0000  plane waves:    5390
 k-point 24 :   0.5000 0.4286 0.0000  plane waves:    5400
 k-point 25 :   0.0000 0.0000 0.2000  plane waves:    5361
 k-point 26 :   0.1000 0.0000 0.2000  plane waves:    5374
 k-point 27 :   0.2000 0.0000 0.2000  plane waves:    5362
 k-point 28 :   0.3000 0.0000 0.2000  plane waves:    5375
 k-point 29 :   0.4000 0.0000 0.2000  plane waves:    5373
 k-point 30 :   0.5000 0.0000 0.2000  plane waves:    5356
 k-point 31 :   0.0000 0.1429 0.2000  plane waves:    5384
 k-point 32 :   0.1000 0.1429 0.2000  plane waves:    5379
 k-point 33 :   0.2000 0.1429 0.2000  plane waves:    5368
 k-point 34 :   0.3000 0.1429 0.2000  plane waves:    5368
 k-point 35 :   0.4000 0.1429 0.2000  plane waves:    5366
 k-point 36 :   0.5000 0.1429 0.2000  plane waves:    5370
 k-point 37 :   0.0000 0.2857 0.2000  plane waves:    5386
 k-point 38 :   0.1000 0.2857 0.2000  plane waves:    5385
 k-point 39 :   0.2000 0.2857 0.2000  plane waves:    5389
 k-point 40 :   0.3000 0.2857 0.2000  plane waves:    5372
 k-point 41 :   0.4000 0.2857 0.2000  plane waves:    5367
 k-point 42 :   0.5000 0.2857 0.2000  plane waves:    5370
 k-point 43 :   0.0000 0.4286 0.2000  plane waves:    5385
 k-point 44 :   0.1000 0.4286 0.2000  plane waves:    5387
 k-point 45 :   0.2000 0.4286 0.2000  plane waves:    5389
 k-point 46 :   0.3000 0.4286 0.2000  plane waves:    5375
 k-point 47 :   0.4000 0.4286 0.2000  plane waves:    5384
 k-point 48 :   0.5000 0.4286 0.2000  plane waves:    5388
 k-point 49 :   0.0000-0.4286 0.2000  plane waves:    5385
 k-point 50 :   0.1000-0.4286 0.2000  plane waves:    5387
 k-point 51 :   0.2000-0.4286 0.2000  plane waves:    5389
 k-point 52 :   0.3000-0.4286 0.2000  plane waves:    5375
 k-point 53 :   0.4000-0.4286 0.2000  plane waves:    5384
 k-point 54 :   0.5000-0.4286 0.2000  plane waves:    5388
 k-point 55 :   0.0000-0.2857 0.2000  plane waves:    5386
 k-point 56 :   0.1000-0.2857 0.2000  plane waves:    5385
 k-point 57 :   0.2000-0.2857 0.2000  plane waves:    5389
 k-point 58 :   0.3000-0.2857 0.2000  plane waves:    5373
 k-point 59 :   0.4000-0.2857 0.2000  plane waves:    5367
 k-point 60 :   0.5000-0.2857 0.2000  plane waves:    5370
 k-point 61 :   0.0000-0.1429 0.2000  plane waves:    5384
 k-point 62 :   0.1000-0.1429 0.2000  plane waves:    5379
 k-point 63 :   0.2000-0.1429 0.2000  plane waves:    5368
 k-point 64 :   0.3000-0.1429 0.2000  plane waves:    5368
 k-point 65 :   0.4000-0.1429 0.2000  plane waves:    5366
 k-point 66 :   0.5000-0.1429 0.2000  plane waves:    5370
 k-point 67 :   0.0000 0.0000 0.4000  plane waves:    5388
 k-point 68 :   0.1000 0.0000 0.4000  plane waves:    5389
 k-point 69 :   0.2000 0.0000 0.4000  plane waves:    5376
 k-point 70 :   0.3000 0.0000 0.4000  plane waves:    5371
 k-point 71 :   0.4000 0.0000 0.4000  plane waves:    5361
 k-point 72 :   0.5000 0.0000 0.4000  plane waves:    5372
 k-point 73 :   0.0000 0.1429 0.4000  plane waves:    5378
 k-point 74 :   0.1000 0.1429 0.4000  plane waves:    5370
 k-point 75 :   0.2000 0.1429 0.4000  plane waves:    5372
 k-point 76 :   0.3000 0.1429 0.4000  plane waves:    5374
 k-point 77 :   0.4000 0.1429 0.4000  plane waves:    5363
 k-point 78 :   0.5000 0.1429 0.4000  plane waves:    5366
 k-point 79 :   0.0000 0.2857 0.4000  plane waves:    5381
 k-point 80 :   0.1000 0.2857 0.4000  plane waves:    5392
 k-point 81 :   0.2000 0.2857 0.4000  plane waves:    5381
 k-point 82 :   0.3000 0.2857 0.4000  plane waves:    5371
 k-point 83 :   0.4000 0.2857 0.4000  plane waves:    5363
 k-point 84 :   0.5000 0.2857 0.4000  plane waves:    5368
 k-point 85 :   0.0000 0.4286 0.4000  plane waves:    5386
 k-point 86 :   0.1000 0.4286 0.4000  plane waves:    5393
 k-point 87 :   0.2000 0.4286 0.4000  plane waves:    5369
 k-point 88 :   0.3000 0.4286 0.4000  plane waves:    5364
 k-point 89 :   0.4000 0.4286 0.4000  plane waves:    5375
 k-point 90 :   0.5000 0.4286 0.4000  plane waves:    5368
 k-point 91 :   0.0000-0.4286 0.4000  plane waves:    5386
 k-point 92 :   0.1000-0.4286 0.4000  plane waves:    5393
 k-point 93 :   0.2000-0.4286 0.4000  plane waves:    5369
 k-point 94 :   0.3000-0.4286 0.4000  plane waves:    5364
 k-point 95 :   0.4000-0.4286 0.4000  plane waves:    5375
 k-point 96 :   0.5000-0.4286 0.4000  plane waves:    5368
 k-point 97 :   0.0000-0.2857 0.4000  plane waves:    5381
 k-point 98 :   0.1000-0.2857 0.4000  plane waves:    5392
 k-point 99 :   0.2000-0.2857 0.4000  plane waves:    5381
 k-point ** :   0.3000-0.2857 0.4000  plane waves:    5371
 k-point ** :   0.4000-0.2857 0.4000  plane waves:    5363
 k-point ** :   0.5000-0.2857 0.4000  plane waves:    5368
 k-point ** :   0.0000-0.1429 0.4000  plane waves:    5378
 k-point ** :   0.1000-0.1429 0.4000  plane waves:    5370
 k-point ** :   0.2000-0.1429 0.4000  plane waves:    5372
 k-point ** :   0.3000-0.1429 0.4000  plane waves:    5374
 k-point ** :   0.4000-0.1429 0.4000  plane waves:    5363
 k-point ** :   0.5000-0.1429 0.4000  plane waves:    5366

 maximum and minimum number of plane-waves per node :      1372     1318

 maximum number of plane-waves:      5405
 maximum index in each direction: 
   IXMAX=    7   IYMAX=   11   IZMAX=   15
   IXMIN=   -8   IYMIN=  -11   IZMIN=  -15


 real space projection operators:
  total allocation   :       9504.75 KBytes
  max/ min on nodes  :       2389.25       2360.25


 parallel 3D FFT for wavefunctions:
    minimum data exchange during FFTs selected (reduces bandwidth)
 parallel 3D FFT for charge:
    minimum data exchange during FFTs selected (reduces bandwidth)


 total amount of memory used by VASP MPI-rank0   184756. kBytes
=======================================================================

   base      :      30000. kBytes
   nonlr-proj:       4112. kBytes
   fftplans  :       4066. kBytes
   grid      :       9940. kBytes
   one-center:        196. kBytes
   wavefun   :     136442. kBytes
 
     INWAV:  cpu time    0.0000: real time    0.0001
 Broyden mixing: mesh for mixing (old mesh)
   NGX = 15   NGY = 21   NGZ = 31
  (NGX  = 64   NGY  = 96   NGZ  =128)
  gives a total of   9765 points

 initial charge density was supplied:
 charge density of overlapping atoms calculated
 number of electron      92.0000000 magnetization       2.4000000
 keeping initial charge density in first step


--------------------------------------------------------------------------------------------------------


 Maximum index for non-local projection operator         2137
 Maximum index for augmentation-charges         3449 (set IRDMAX)


--------------------------------------------------------------------------------------------------------


 First call to EWALD:  gamma=   0.303
 Maximum number of real-space cells 4x 3x 2
 Maximum number of reciprocal cells 2x 3x 4

    FEWALD:  cpu time    0.0014: real time    0.0014


--------------------------------------- Iteration      1(   1)  ---------------------------------------


    POTLOK:  cpu time    0.1285: real time    0.1423
    SETDIJ:  cpu time    1.2727: real time    1.2782
     EDDAV:  cpu time   32.0160: real time   32.1081
 BZINTS: Fermi energy: 21.143731; 92.000000 electrons
         Band energy: 717.877783;  BLOECHL correction: -0.959060
       DOS:  cpu time    0.2068: real time    0.2072
    --------------------------------------------
      LOOP:  cpu time   33.6240: real time   33.7358

 eigenvalue-minimisations  : 26904
 total energy-change (2. order) : 0.1170731E+04  (-0.3150583E+04)
 number of electron      92.0000000 magnetization       2.4000000
 augmentation part       92.0000000 magnetization       2.4000000

 Free energy of the ion-electron system (eV)
  ---------------------------------------------------
  alpha Z        PSCENC =       598.91382011
  Ewald energy   TEWEN  =     -8437.49812477
  -Hartree energ DENC   =     -3135.91153182
  -exchange      EXHF   =         0.00000000
  -V(xc)+E(xc)   XCENC  =       403.30200269
  PAW double counting   =      9716.51005095   -10278.97619931
  entropy T*S    EENTRO =         0.00000000
  eigenvalues    EBANDS =       717.87778334
  atomic energy  EATOM  =     11586.51360488
  Solvation  Ediel_sol  =         0.00000000
  ---------------------------------------------------
  free energy    TOTEN  =      1170.73140608 eV

  energy without entropy =     1170.73140608  energy(sigma->0) =     1170.73140608


--------------------------------------------------------------------------------------------------------




--------------------------------------- Iteration      1(   2)  ---------------------------------------


     EDDAV:  cpu time   37.3914: real time   37.5002
 BZINTS: Fermi energy: 11.382802; 92.000000 electrons
         Band energy:-149.436820;  BLOECHL correction: -0.143727
       DOS:  cpu time    0.2118: real time    0.2123
    --------------------------------------------
      LOOP:  cpu time   37.6031: real time   37.7124

 eigenvalue-minimisations  : 32520
 total energy-change (2. order) :-0.8673146E+03  (-0.7923505E+03)
 number of electron      92.0000000 magnetization       2.4000000
 augmentation part       92.0000000 magnetization       2.4000000

 Free energy of the ion-electron system (eV)
  ---------------------------------------------------
  alpha Z        PSCENC =       598.91382011
  Ewald energy   TEWEN  =     -8437.49812477
  -Hartree energ DENC   =     -3135.91153182
  -exchange      EXHF   =         0.00000000
  -V(xc)+E(xc)   XCENC  =       403.30200269
  PAW double counting   =      9716.51005095   -10278.97619931
  entropy T*S    EENTRO =         0.00000000
  eigenvalues    EBANDS =      -149.43681952
  atomic energy  EATOM  =     11586.51360488
  Solvation  Ediel_sol  =         0.00000000
  ---------------------------------------------------
  free energy    TOTEN  =       303.41680322 eV

  energy without entropy =      303.41680322  energy(sigma->0) =      303.41680322


--------------------------------------------------------------------------------------------------------




--------------------------------------- Iteration      1(   3)  ---------------------------------------


     EDDAV:  cpu time   40.6269: real time   40.7413
 BZINTS: Fermi energy:  6.582729; 92.000000 electrons
         Band energy:-466.020314;  BLOECHL correction: -0.134229
       DOS:  cpu time    0.2206: real time    0.2211
    --------------------------------------------
      LOOP:  cpu time   40.8475: real time   40.9624

 eigenvalue-minimisations  : 36312
 total energy-change (2. order) :-0.3165835E+03  (-0.3098690E+03)
 number of electron      92.0000000 magnetization       2.4000000
 augmentation part       92.0000000 magnetization       2.4000000

 Free energy of the ion-electron system (eV)
  ---------------------------------------------------
  alpha Z        PSCENC =       598.91382011
  Ewald energy   TEWEN  =     -8437.49812477
  -Hartree energ DENC   =     -3135.91153182
  -exchange      EXHF   =         0.00000000
  -V(xc)+E(xc)   XCENC  =       403.30200269
  PAW double counting   =      9716.51005095   -10278.97619931
  entropy T*S    EENTRO =         0.00000000
  eigenvalues    EBANDS =      -466.02031405
  atomic energy  EATOM  =     11586.51360488
  Solvation  Ediel_sol  =         0.00000000
  ---------------------------------------------------
  free energy    TOTEN  =       -13.16669132 eV

  energy without entropy =      -13.16669132  energy(sigma->0) =      -13.16669132


--------------------------------------------------------------------------------------------------------




--------------------------------------- Iteration      1(   4)  ---------------------------------------


     EDDAV:  cpu time   43.9640: real time   44.0787
 BZINTS: Fermi energy:  5.653420; 92.000000 electrons
         Band energy:-512.500485;  BLOECHL correction: -0.008783
       DOS:  cpu time    0.1913: real time    0.1917
    --------------------------------------------
      LOOP:  cpu time   44.1553: real time   44.2704

 eigenvalue-minimisations  : 42840
 total energy-change (2. order) :-0.4648017E+02  (-0.4557363E+02)
 number of electron      92.0000000 magnetization       2.4000000
 augmentation part       92.0000000 magnetization       2.4000000

 Free energy of the ion-electron system (eV)
  ---------------------------------------------------
  alpha Z        PSCENC =       598.91382011
  Ewald energy   TEWEN  =     -8437.49812477
  -Hartree energ DENC   =     -3135.91153182
  -exchange      EXHF   =         0.00000000
  -V(xc)+E(xc)   XCENC  =       403.30200269
  PAW double counting   =      9716.51005095   -10278.97619931
  entropy T*S    EENTRO =         0.00000000
  eigenvalues    EBANDS =      -512.50048479
  atomic energy  EATOM  =     11586.51360488
  Solvation  Ediel_sol  =         0.00000000
  ---------------------------------------------------
  free energy    TOTEN  =       -59.64686205 eV

  energy without entropy =      -59.64686205  energy(sigma->0) =      -59.64686205


--------------------------------------------------------------------------------------------------------




--------------------------------------- Iteration      1(   5)  ---------------------------------------


     EDDAV:  cpu time   46.6478: real time   46.7675
 BZINTS: Fermi energy:  5.587741; 92.000000 electrons
         Band energy:-516.749689;  BLOECHL correction: -0.002307
       DOS:  cpu time    0.1873: real time    0.1877
    CHARGE:  cpu time    1.6878: real time    1.6922
    MIXING:  cpu time    0.0023: real time    0.0023
    --------------------------------------------
      LOOP:  cpu time   48.5252: real time   48.6497

 eigenvalue-minimisations  : 46952
 total energy-change (2. order) :-0.4249204E+01  (-0.4084498E+01)
 number of electron      92.0000012 magnetization       1.0335352
 augmentation part       15.3985760 magnetization       0.8609138

 Broyden mixing:
  rms(total) = 0.27586E+01    rms(broyden)= 0.27586E+01
  rms(prec ) = 0.34630E+01
  weight for this iteration     100.00

 Free energy of the ion-electron system (eV)
  ---------------------------------------------------
  alpha Z        PSCENC =       598.91382011
  Ewald energy   TEWEN  =     -8437.49812477
  -Hartree energ DENC   =     -3135.91153182
  -exchange      EXHF   =         0.00000000
  -V(xc)+E(xc)   XCENC  =       403.30200269
  PAW double counting   =      9716.51005095   -10278.97619931
  entropy T*S    EENTRO =         0.00000000
  eigenvalues    EBANDS =      -516.74968891
  atomic energy  EATOM  =     11586.51360488
  Solvation  Ediel_sol  =         0.00000000
  ---------------------------------------------------
  free energy    TOTEN  =       -63.89606617 eV

  energy without entropy =      -63.89606617  energy(sigma->0) =      -63.89606617


--------------------------------------------------------------------------------------------------------




--------------------------------------- Iteration      1(   6)  ---------------------------------------


    POTLOK:  cpu time    0.1125: real time    0.1133
    SETDIJ:  cpu time    1.1767: real time    1.1797
     EDDAV:  cpu time   42.3729: real time   42.4990
 BZINTS: Fermi energy:  2.373442; 92.000000 electrons
         Band energy:-741.375226;  BLOECHL correction:  0.000000
       DOS:  cpu time    0.0349: real time    0.0350
    CHARGE:  cpu time    1.7317: real time    1.7365
    MIXING:  cpu time    0.0027: real time    0.0027
    --------------------------------------------
      LOOP:  cpu time   45.4313: real time   45.5661

 eigenvalue-minimisations  : 38296
 total energy-change (2. order) :-0.1136682E+02  (-0.9505821E+01)
 number of electron      92.0000013 magnetization       0.7309979
 augmentation part       19.2231949 magnetization       0.7648345

 Broyden mixing:
  rms(total) = 0.32982E+01    rms(broyden)= 0.32982E+01
  rms(prec ) = 0.34561E+01
  weight for this iteration     100.00

 eigenvalues of (default mixing * dielectric matrix)
  average eigenvalue GAMMA=   0.3734
  0.3734

 Free energy of the ion-electron system (eV)
  ---------------------------------------------------
  alpha Z        PSCENC =       598.91382011
  Ewald energy   TEWEN  =     -8437.49812477
  -Hartree energ DENC   =     -2952.80927756
  -exchange      EXHF   =         0.00000000
  -V(xc)+E(xc)   XCENC  =       391.73713865
  PAW double counting   =      9667.69779105   -10188.44261601
  entropy T*S    EENTRO =         0.00000000
  eigenvalues    EBANDS =      -741.37522568
  atomic energy  EATOM  =     11586.51360488
  Solvation  Ediel_sol  =         0.00000000
  ---------------------------------------------------
  free energy    TOTEN  =       -75.26288931 eV

  energy without entropy =      -75.26288931  energy(sigma->0) =      -75.26288931


--------------------------------------------------------------------------------------------------------




--------------------------------------- Iteration      1(   7)  ---------------------------------------


    POTLOK:  cpu time    0.1214: real time    0.1218
    SETDIJ:  cpu time    1.2550: real time    1.2581
     EDDAV:  cpu time   39.2459: real time   39.3472
 BZINTS: Fermi energy:  2.685733; 92.000000 electrons
         Band energy:-660.164661;  BLOECHL correction:  0.000000
       DOS:  cpu time    0.0328: real time    0.0329
    CHARGE:  cpu time    1.6541: real time    1.6584
    MIXING:  cpu time    0.0023: real time    0.0023
    --------------------------------------------
      LOOP:  cpu time   42.3115: real time   42.4207

 eigenvalue-minimisations  : 35608
 total energy-change (2. order) :-0.1465399E+01  (-0.3098581E+01)
 number of electron      92.0000013 magnetization       0.4941928
 augmentation part       19.1103775 magnetization       0.5125992

 Broyden mixing:
  rms(total) = 0.15100E+01    rms(broyden)= 0.15100E+01
  rms(prec ) = 0.17336E+01
  weight for this iteration     100.00

 eigenvalues of (default mixing * dielectric matrix)
  average eigenvalue GAMMA=   0.5999
  0.5999  0.5999

 Free energy of the ion-electron system (eV)
  ---------------------------------------------------
  alpha Z        PSCENC =       598.91382011
  Ewald energy   TEWEN  =     -8437.49812477
  -Hartree energ DENC   =     -3005.38435080
  -exchange      EXHF   =         0.00000000
  -V(xc)+E(xc)   XCENC  =       396.25812604
  PAW double counting   =      9834.65544789   -10390.02215089
  entropy T*S    EENTRO =         0.00000000
  eigenvalues    EBANDS =      -660.16466112
  atomic energy  EATOM  =     11586.51360488
  Solvation  Ediel_sol  =         0.00000000
  ---------------------------------------------------
  free energy    TOTEN  =       -76.72828865 eV

  energy without entropy =      -76.72828865  energy(sigma->0) =      -76.72828865


--------------------------------------------------------------------------------------------------------




--------------------------------------- Iteration      1(   8)  ---------------------------------------


    POTLOK:  cpu time    0.1095: real time    0.1099
    SETDIJ:  cpu time    1.1728: real time    1.1757
     EDDAV:  cpu time   35.3570: real time   35.4469
 BZINTS: Fermi energy:  3.888779; 92.000000 electrons
         Band energy:-585.075134;  BLOECHL correction: -0.000000
       DOS:  cpu time    0.0380: real time    0.0381
    CHARGE:  cpu time    1.6530: real time    1.6570
    MIXING:  cpu time    0.0025: real time    0.0025
    --------------------------------------------
      LOOP:  cpu time   38.3328: real time   38.4303

 eigenvalue-minimisations  : 33784
 total energy-change (2. order) : 0.2140439E+01  (-0.9622987E+00)
 number of electron      92.0000013 magnetization       0.2061624
 augmentation part       18.4397227 magnetization       0.2148107

 Broyden mixing:
  rms(total) = 0.66827E+00    rms(broyden)= 0.66827E+00
  rms(prec ) = 0.78400E+00
  weight for this iteration     100.00

 eigenvalues of (default mixing * dielectric matrix)
  average eigenvalue GAMMA=   0.7799
  0.7776  0.7811  0.7811

 Free energy of the ion-electron system (eV)
  ---------------------------------------------------
  alpha Z        PSCENC =       598.91382011
  Ewald energy   TEWEN  =     -8437.49812477
  -Hartree energ DENC   =     -3055.57100000
  -exchange      EXHF   =         0.00000000
  -V(xc)+E(xc)   XCENC  =       399.44163545
  PAW double counting   =     10149.48627495   -10730.79892683
  entropy T*S    EENTRO =         0.00000000
  eigenvalues    EBANDS =      -585.07513386
  atomic energy  EATOM  =     11586.51360488
  Solvation  Ediel_sol  =         0.00000000
  ---------------------------------------------------
  free energy    TOTEN  =       -74.58785006 eV

  energy without entropy =      -74.58785006  energy(sigma->0) =      -74.58785006


--------------------------------------------------------------------------------------------------------




--------------------------------------- Iteration      1(   9)  ---------------------------------------


    POTLOK:  cpu time    0.1120: real time    0.1134
    SETDIJ:  cpu time    1.1669: real time    1.1698
     EDDAV:  cpu time   41.4086: real time   41.5140
 BZINTS: Fermi energy:  5.036231; 92.000000 electrons
         Band energy:-531.396060;  BLOECHL correction: -0.005758
       DOS:  cpu time    0.1796: real time    0.1800
    CHARGE:  cpu time    1.6602: real time    1.6644
    MIXING:  cpu time    0.0026: real time    0.0026
    --------------------------------------------
      LOOP:  cpu time   44.5298: real time   44.6443

 eigenvalue-minimisations  : 41048
 total energy-change (2. order) :-0.5485042E+00  (-0.1018068E+01)
 number of electron      92.0000012 magnetization       0.1588837
 augmentation part       16.7857568 magnetization       0.1532069

 Broyden mixing:
  rms(total) = 0.72198E+00    rms(broyden)= 0.72197E+00
  rms(prec ) = 0.91710E+00
  weight for this iteration     100.00

 eigenvalues of (default mixing * dielectric matrix)
  average eigenvalue GAMMA=   0.7710
  1.0675  0.7492  0.7492  0.5180

 Free energy of the ion-electron system (eV)
  ---------------------------------------------------
  alpha Z        PSCENC =       598.91382011
  Ewald energy   TEWEN  =     -8437.49812477
  -Hartree energ DENC   =     -3091.51287077
  -exchange      EXHF   =         0.00000000
  -V(xc)+E(xc)   XCENC  =       400.76520693
  PAW double counting   =     10563.07318144   -11163.99511231
  entropy T*S    EENTRO =         0.00000000
  eigenvalues    EBANDS =      -531.39605976
  atomic energy  EATOM  =     11586.51360488
  Solvation  Ediel_sol  =         0.00000000
  ---------------------------------------------------
  free energy    TOTEN  =       -75.13635424 eV

  energy without entropy =      -75.13635424  energy(sigma->0) =      -75.13635424


--------------------------------------------------------------------------------------------------------




--------------------------------------- Iteration      1(  10)  ---------------------------------------


    POTLOK:  cpu time    0.1061: real time    0.1070
    SETDIJ:  cpu time    1.1031: real time    1.1059
     EDDAV:  cpu time   37.5314: real time   37.6272
 BZINTS: Fermi energy:  4.509579; 92.000000 electrons
         Band energy:-562.740008;  BLOECHL correction: -0.012040
       DOS:  cpu time    0.1756: real time    0.1760
    CHARGE:  cpu time    1.6676: real time    1.6719
    MIXING:  cpu time    0.0025: real time    0.0025
    --------------------------------------------
      LOOP:  cpu time   40.5863: real time   40.6905

 eigenvalue-minimisations  : 36704
 total energy-change (2. order) : 0.2139810E+00  (-0.2243604E+00)
 number of electron      92.0000012 magnetization       0.0291099
 augmentation part       17.9276389 magnetization      -0.1477020

 Broyden mixing:
  rms(total) = 0.39995E+00    rms(broyden)= 0.39995E+00
  rms(prec ) = 0.49008E+00
  weight for this iteration     100.00

 eigenvalues of (default mixing * dielectric matrix)
  average eigenvalue GAMMA=   0.7839
  1.4465  0.7686  0.7686  0.5916  0.3441

 Free energy of the ion-electron system (eV)
  ---------------------------------------------------
  alpha Z        PSCENC =       598.91382011
  Ewald energy   TEWEN  =     -8437.49812477
  -Hartree energ DENC   =     -3064.10806372
  -exchange      EXHF   =         0.00000000
  -V(xc)+E(xc)   XCENC  =       399.16635906
  PAW double counting   =     10617.34232692   -11212.51228750
  entropy T*S    EENTRO =         0.00000000
  eigenvalues    EBANDS =      -562.74000823
  atomic energy  EATOM  =     11586.51360488
  Solvation  Ediel_sol  =         0.00000000
  ---------------------------------------------------
  free energy    TOTEN  =       -74.92237325 eV

  energy without entropy =      -74.92237325  energy(sigma->0) =      -74.92237325


--------------------------------------------------------------------------------------------------------




--------------------------------------- Iteration      1(  11)  ---------------------------------------


    POTLOK:  cpu time    0.1085: real time    0.1095
    SETDIJ:  cpu time    1.1364: real time    1.1393
     EDDAV:  cpu time   50.3113: real time   50.4466
 BZINTS: Fermi energy:  4.233318; 92.000000 electrons
         Band energy:-563.846522;  BLOECHL correction: -0.000837
       DOS:  cpu time    0.1940: real time    0.1946
    CHARGE:  cpu time    1.8111: real time    1.8155
    MIXING:  cpu time    0.0032: real time    0.0032
    --------------------------------------------
      LOOP:  cpu time   53.5645: real time   53.7087

 eigenvalue-minimisations  : 45816
 total energy-change (2. order) :-0.4911163E-01  (-0.6381821E-01)
 number of electron      92.0000012 magnetization       0.0228665
 augmentation part       18.1249527 magnetization       0.0192111

 Broyden mixing:
  rms(total) = 0.28650E+00    rms(broyden)= 0.28650E+00
  rms(prec ) = 0.35501E+00
  weight for this iteration     100.00

 eigenvalues of (default mixing * dielectric matrix)
  average eigenvalue GAMMA=   0.7850
  1.8162  0.7233  0.7233  0.6867  0.3804  0.3804

 Free energy of the ion-electron system (eV)
  ---------------------------------------------------
  alpha Z        PSCENC =       598.91382011
  Ewald energy   TEWEN  =     -8437.49812477
  -Hartree energ DENC   =     -3061.99330381
  -exchange      EXHF   =         0.00000000
  -V(xc)+E(xc)   XCENC  =       399.34742320
  PAW double counting   =     10690.84909967   -11287.25748254
  entropy T*S    EENTRO =         0.00000000
  eigenvalues    EBANDS =      -563.84652161
  atomic energy  EATOM  =     11586.51360488
  Solvation  Ediel_sol  =         0.00000000
  ---------------------------------------------------
  free energy    TOTEN  =       -74.97148487 eV

  energy without entropy =      -74.97148487  energy(sigma->0) =      -74.97148487


--------------------------------------------------------------------------------------------------------




--------------------------------------- Iteration      1(  12)  ---------------------------------------


    POTLOK:  cpu time    0.1307: real time    0.1317
    SETDIJ:  cpu time    1.4432: real time    1.4468
     EDDAV:  cpu time   49.1454: real time   49.2708
 BZINTS: Fermi energy:  4.375961; 92.000000 electrons
         Band energy:-558.045172;  BLOECHL correction: -0.003205
       DOS:  cpu time    0.1951: real time    0.1956
    CHARGE:  cpu time    1.8313: real time    1.8360
    MIXING:  cpu time    0.0034: real time    0.0035
    --------------------------------------------
      LOOP:  cpu time   52.7491: real time   52.8843

 eigenvalue-minimisations  : 40960
 total energy-change (2. order) : 0.1924762E-01  (-0.1340775E-01)
 number of electron      92.0000012 magnetization       0.0296829
 augmentation part       17.9887324 magnetization      -0.0164477

 Broyden mixing:
  rms(total) = 0.16251E+00    rms(broyden)= 0.16251E+00
  rms(prec ) = 0.21888E+00
  weight for this iteration     100.00

 eigenvalues of (default mixing * dielectric matrix)
  average eigenvalue GAMMA=   0.8734
  2.0328  1.1912  0.6597  0.6597  0.6826  0.5420  0.3459

 Free energy of the ion-electron system (eV)
  ---------------------------------------------------
  alpha Z        PSCENC =       598.91382011
  Ewald energy   TEWEN  =     -8437.49812477
  -Hartree energ DENC   =     -3066.24087707
  -exchange      EXHF   =         0.00000000
  -V(xc)+E(xc)   XCENC  =       399.77215361
  PAW double counting   =     10744.24817718   -11342.61581923
  entropy T*S    EENTRO =         0.00000000
  eigenvalues    EBANDS =      -558.04517197
  atomic energy  EATOM  =     11586.51360488
  Solvation  Ediel_sol  =         0.00000000
  ---------------------------------------------------
  free energy    TOTEN  =       -74.95223725 eV

  energy without entropy =      -74.95223725  energy(sigma->0) =      -74.95223725


--------------------------------------------------------------------------------------------------------




--------------------------------------- Iteration      1(  13)  ---------------------------------------


    POTLOK:  cpu time    0.1365: real time    0.1377
    SETDIJ:  cpu time    1.4826: real time    1.4866
     EDDAV:  cpu time   48.9979: real time   49.1411
 BZINTS: Fermi energy:  4.469764; 92.000000 electrons
         Band energy:-553.020399;  BLOECHL correction: -0.003106
       DOS:  cpu time    0.2061: real time    0.2066
    CHARGE:  cpu time    1.8439: real time    1.8490
    MIXING:  cpu time    0.0041: real time    0.0041
    --------------------------------------------
      LOOP:  cpu time   52.6710: real time   52.8251

 eigenvalue-minimisations  : 41096
 total energy-change (2. order) : 0.2292459E-01  (-0.5418119E-02)
 number of electron      92.0000012 magnetization       0.0250415
 augmentation part       17.8660888 magnetization      -0.0115958

 Broyden mixing:
  rms(total) = 0.85947E-01    rms(broyden)= 0.85947E-01
  rms(prec ) = 0.11520E+00
  weight for this iteration     100.00

 eigenvalues of (default mixing * dielectric matrix)
  average eigenvalue GAMMA=   0.8990
  2.0872  1.5791  0.6786  0.6786  0.7865  0.5514  0.4425  0.3883

 Free energy of the ion-electron system (eV)
  ---------------------------------------------------
  alpha Z        PSCENC =       598.91382011
  Ewald energy   TEWEN  =     -8437.49812477
  -Hartree energ DENC   =     -3069.84700818
  -exchange      EXHF   =         0.00000000
  -V(xc)+E(xc)   XCENC  =       399.93556242
  PAW double counting   =     10787.95858566   -11387.88535353
  entropy T*S    EENTRO =         0.00000000
  eigenvalues    EBANDS =      -553.02039927
  atomic energy  EATOM  =     11586.51360488
  Solvation  Ediel_sol  =         0.00000000
  ---------------------------------------------------
  free energy    TOTEN  =       -74.92931267 eV

  energy without entropy =      -74.92931267  energy(sigma->0) =      -74.92931267


--------------------------------------------------------------------------------------------------------




--------------------------------------- Iteration      1(  14)  ---------------------------------------


    POTLOK:  cpu time    0.1392: real time    0.1404
    SETDIJ:  cpu time    1.5453: real time    1.5504
     EDDAV:  cpu time   52.5624: real time   52.6977
 BZINTS: Fermi energy:  4.493974; 92.000000 electrons
         Band energy:-551.092915;  BLOECHL correction: -0.002104
       DOS:  cpu time    0.1969: real time    0.1973
    CHARGE:  cpu time    1.8244: real time    1.8291
    MIXING:  cpu time    0.0039: real time    0.0039
    --------------------------------------------
      LOOP:  cpu time   56.2720: real time   56.4188

 eigenvalue-minimisations  : 44888
 total energy-change (2. order) : 0.5627295E-02  (-0.1897755E-02)
 number of electron      92.0000012 magnetization       0.0183368
 augmentation part       17.8131072 magnetization       0.0188819

 Broyden mixing:
  rms(total) = 0.37641E-01    rms(broyden)= 0.37640E-01
  rms(prec ) = 0.49012E-01
  weight for this iteration     100.00

 eigenvalues of (default mixing * dielectric matrix)
  average eigenvalue GAMMA=   0.9383
  2.0455  2.0455  0.6865  0.6865  0.8937  0.5985  0.5985  0.5163  0.3737

 Free energy of the ion-electron system (eV)
  ---------------------------------------------------
  alpha Z        PSCENC =       598.91382011
  Ewald energy   TEWEN  =     -8437.49812477
  -Hartree energ DENC   =     -3071.45569342
  -exchange      EXHF   =         0.00000000
[...]
 -0.000  -0.000   0.000   0.000   0.006  -0.000  -0.000  -0.004
  0.000  -0.000  -0.013   0.000   0.000   0.009  -0.000  -0.000
 -0.000  -0.000   0.000   0.000  -0.000  -0.000  -0.000  -0.000
 pseudopotential strength for first ion, spin component:           2
 -8.479  -4.182   0.001  -0.001   0.000  -0.000   0.000   0.000
 -4.182  -0.256  -0.000   0.001  -0.000   0.000  -0.000   0.000
  0.001  -0.000 -15.625  -0.000  -0.000   7.407   0.000   0.000
 -0.001   0.001  -0.000 -15.624  -0.000   0.000   7.407  -0.000
  0.000  -0.000  -0.000  -0.000 -15.625   0.000  -0.000   7.408
 -0.000   0.000   7.407   0.000   0.000   4.899  -0.000  -0.000
  0.000  -0.000   0.000   7.407  -0.000  -0.000   4.899   0.000
  0.000   0.000   0.000  -0.000   7.408  -0.000   0.000   4.899
 -0.000  -0.000   0.000   0.000   0.000   0.000  -0.000  -0.000
 -0.000   0.000  -0.000   0.000   0.000   0.000   0.000  -0.000
  0.000  -0.000   0.000  -0.000  -0.000   0.000   0.000  -0.000
 -0.000   0.000   0.000   0.000  -0.000  -0.000   0.000   0.000
 -0.000   0.000  -0.000  -0.000   0.000   0.000   0.000   0.000
  0.000   0.000  -0.000  -0.000  -0.000  -0.000   0.000  -0.000
  0.001  -0.000   0.000  -0.001  -0.000   0.000  -0.000   0.000
 -0.000   0.000  -0.000   0.000   0.000   0.000   0.000   0.000
  0.000  -0.000  -0.000  -0.000   0.001   0.000  -0.000   0.000
  0.000  -0.000   0.000   0.000  -0.000   0.000  -0.000   0.000
  0.000   0.000  -0.000   0.000   0.000   0.000  -0.001  -0.000
  0.000   0.000   0.000   0.000   0.000  -0.000  -0.000  -0.001
 -0.000   0.000   0.000  -0.000  -0.000   0.001   0.000  -0.000
  0.000   0.000   0.000   0.000  -0.000  -0.000  -0.001   0.000
  0.000  -0.000  -0.000   0.000  -0.000  -0.000  -0.000   0.001
 -0.000   0.000   0.000  -0.000   0.000  -0.002   0.000  -0.000
 -0.000  -0.000   0.000  -0.000  -0.000   0.000   0.000   0.000
  0.000  -0.000  -0.000   0.000   0.000   0.000  -0.001  -0.000
  0.000   0.000   0.000   0.000   0.000  -0.000  -0.000  -0.002
 -0.000   0.000   0.000  -0.000  -0.000   0.001   0.000  -0.000
  0.000  -0.000   0.000   0.000  -0.000  -0.000  -0.001   0.000
  0.000  -0.000  -0.000   0.000   0.000  -0.000  -0.000   0.001
 -0.000   0.000   0.000  -0.000   0.000  -0.002   0.000  -0.000
 -0.000  -0.000   0.000  -0.000  -0.000  -0.000   0.000  -0.000
 total augmentation occupancy for first ion, spin component:           1
  1.995  -0.026   0.000  -0.000   0.000   0.000  -0.000   0.000   0.000  -0.000  -0.000   0.000   0.000   0.000  -0.000   0.000
 -0.026   0.576   0.000  -0.001   0.000  -0.000   0.000   0.000   0.000   0.001   0.000   0.000  -0.001   0.000   0.000   0.000
  0.000   0.000   2.011   0.000   0.000  -0.015  -0.000   0.000   0.000  -0.000  -0.000   0.000  -0.000   0.000   0.000  -0.000
 -0.000  -0.001   0.000   2.011   0.000  -0.000  -0.015   0.000   0.000   0.000  -0.000   0.000  -0.000   0.000  -0.000  -0.000
  0.000   0.000   0.000   0.000   2.011   0.000   0.000  -0.015   0.000   0.000   0.000  -0.000   0.000  -0.000   0.000   0.000
  0.000  -0.000  -0.015  -0.000   0.000   0.017   0.000   0.000   0.000   0.000   0.000   0.000  -0.000   0.000   0.000   0.000
 -0.000   0.000  -0.000  -0.015   0.000   0.000   0.017   0.000   0.000  -0.000   0.000   0.000   0.000   0.000  -0.000   0.000
  0.000   0.000   0.000   0.000  -0.015   0.000   0.000   0.017  -0.000   0.000   0.000   0.001   0.000  -0.000   0.000   0.000
  0.000   0.000   0.000   0.000   0.000   0.000   0.000  -0.000   0.176   0.000   0.000  -0.091   0.000   0.046   0.000   0.000
 -0.000   0.001  -0.000   0.000   0.000   0.000  -0.000   0.000   0.000   0.241   0.000   0.000  -0.093   0.000   0.065   0.000
 -0.000   0.000  -0.000  -0.000   0.000   0.000   0.000   0.000   0.000   0.000   0.111   0.000   0.001   0.000   0.000   0.026
  0.000   0.000   0.000   0.000  -0.000   0.000   0.000   0.001  -0.091   0.000   0.000   0.240   0.000  -0.027   0.000   0.000
  0.000  -0.001  -0.000  -0.000   0.000  -0.000   0.000   0.000   0.000  -0.093   0.001   0.000   0.176   0.000  -0.028   0.000
  0.000   0.000   0.000   0.000  -0.000   0.000   0.000  -0.000   0.046   0.000   0.000  -0.027   0.000   0.012   0.000   0.000
 -0.000   0.000   0.000  -0.000   0.000   0.000  -0.000   0.000   0.000   0.065   0.000   0.000  -0.028   0.000   0.018   0.000
  0.000   0.000  -0.000  -0.000   0.000   0.000   0.000   0.000   0.000   0.000   0.026   0.000   0.000   0.000   0.000   0.006
  0.000   0.000   0.000   0.000   0.000   0.000   0.000   0.000  -0.027   0.000   0.000   0.065   0.000  -0.008   0.000   0.000
 -0.000  -0.000  -0.000  -0.000   0.000  -0.000   0.000   0.000   0.000  -0.028   0.000   0.000   0.046   0.000  -0.008   0.000
 -0.000   0.001  -0.001  -0.051   0.000   0.000   0.056   0.000   0.000   0.001   0.000   0.000   0.003   0.000   0.000  -0.000
  0.000   0.000   0.000   0.000  -0.062   0.000   0.000   0.068  -0.001   0.000   0.000   0.000   0.000  -0.000   0.000   0.000
 -0.000  -0.002   0.028  -0.000   0.000  -0.031  -0.000   0.000   0.000   0.001  -0.001   0.000  -0.000   0.000   0.000  -0.000
 -0.000   0.001  -0.000  -0.045   0.000   0.000   0.050   0.000   0.000  -0.001  -0.002   0.000   0.001   0.000  -0.000  -0.000
  0.000   0.000   0.000   0.000   0.029   0.000   0.000  -0.031  -0.000   0.000   0.000  -0.001   0.000   0.000   0.000   0.000
  0.000  -0.002  -0.062  -0.001   0.000   0.069   0.000   0.000   0.000   0.001   0.001   0.000  -0.002   0.000   0.000   0.000
  0.000   0.000   0.000   0.000  -0.001   0.000   0.000   0.000  -0.001   0.000   0.000   0.000   0.000  -0.000   0.000   0.000
  0.000  -0.003   0.001   0.053   0.000  -0.000  -0.055   0.000   0.000   0.001   0.001   0.000  -0.002   0.000   0.000   0.000
  0.000   0.000   0.000   0.000   0.065   0.000   0.000  -0.067   0.002   0.000   0.000  -0.002   0.000   0.001   0.000   0.000
  0.000   0.000  -0.029   0.000   0.000   0.030   0.000   0.000   0.000  -0.001  -0.001   0.000   0.000   0.000  -0.000  -0.000
  0.000  -0.002   0.000   0.047   0.000  -0.000  -0.049   0.000   0.000   0.001   0.002   0.000  -0.001   0.000   0.000   0.000
  0.000   0.000   0.000   0.000  -0.030   0.000   0.000   0.030   0.001   0.000   0.000   0.002   0.000   0.000   0.000   0.000
 -0.000   0.003   0.065   0.001   0.000  -0.068  -0.000   0.000   0.000  -0.000   0.000   0.000   0.003   0.000  -0.000   0.000
  0.000   0.000   0.000   0.000   0.001   0.000   0.000  -0.000   0.001   0.000   0.000   0.001   0.000   0.000   0.000   0.000
 total augmentation occupancy for first ion, spin component:           2
  0.042   0.161   0.000  -0.000   0.000   0.000  -0.000   0.000   0.000  -0.000  -0.000   0.000   0.000   0.000  -0.000  -0.000
  0.161  -0.127   0.000  -0.000   0.000  -0.000   0.000   0.000   0.000   0.003  -0.000   0.000  -0.002   0.000   0.001   0.000
  0.000   0.000   0.008   0.000   0.000   0.044  -0.000   0.000   0.000   0.001   0.001   0.000   0.000   0.000   0.000   0.000
 -0.000  -0.000   0.000   0.007   0.000  -0.000   0.044   0.000   0.000  -0.000   0.001   0.000   0.000   0.000  -0.000   0.000
  0.000   0.000   0.000   0.000   0.007   0.000   0.000   0.044  -0.000   0.000   0.000   0.000   0.000  -0.000   0.000   0.000
  0.000  -0.000   0.044  -0.000   0.000  -0.002   0.000   0.000   0.000  -0.001  -0.000   0.000  -0.000   0.000  -0.000  -0.000
 -0.000   0.000  -0.000   0.044   0.000   0.000  -0.003   0.000   0.000   0.000  -0.000   0.000  -0.000   0.000   0.000  -0.000
  0.000   0.000   0.000   0.000   0.044   0.000   0.000  -0.003   0.000   0.000   0.000  -0.000   0.000   0.000   0.000   0.000
  0.000   0.000   0.000   0.000  -0.000   0.000   0.000   0.000  -0.034   0.000   0.000   0.011   0.000  -0.009   0.000   0.000
 -0.000   0.003   0.001  -0.000   0.000  -0.001   0.000   0.000   0.000  -0.039  -0.001   0.000   0.011   0.000  -0.010  -0.000
 -0.000  -0.000   0.001   0.001   0.000  -0.000  -0.000   0.000   0.000  -0.001  -0.024   0.000  -0.001   0.000  -0.000  -0.006
  0.000   0.000   0.000   0.000   0.000   0.000   0.000  -0.000   0.011   0.000   0.000  -0.042   0.000   0.004   0.000   0.000
  0.000  -0.002   0.000   0.000   0.000  -0.000  -0.000   0.000   0.000   0.011  -0.001   0.000  -0.031   0.000   0.003  -0.000
  0.000   0.000   0.000   0.000  -0.000   0.000   0.000   0.000  -0.009   0.000   0.000   0.004   0.000  -0.002   0.000   0.000
 -0.000   0.001   0.000  -0.000   0.000  -0.000   0.000   0.000   0.000  -0.010  -0.000   0.000   0.003   0.000  -0.003  -0.000
 -0.000   0.000   0.000   0.000   0.000  -0.000  -0.000   0.000   0.000  -0.000  -0.006   0.000  -0.000   0.000  -0.000  -0.001
  0.000   0.000   0.000   0.000   0.000   0.000   0.000  -0.000   0.004   0.000   0.000  -0.011   0.000   0.001   0.000   0.000
  0.000  -0.001   0.000   0.000   0.000  -0.000  -0.000   0.000   0.000   0.003  -0.000   0.000  -0.008   0.000   0.001  -0.000
 -0.000   0.003  -0.001   0.007   0.000   0.001  -0.012   0.000   0.000  -0.001   0.001   0.000  -0.002   0.000  -0.000   0.000
  0.000   0.000   0.000   0.000   0.008   0.000   0.000  -0.015  -0.000   0.000   0.000   0.004   0.000  -0.000   0.000   0.000
 -0.000   0.005  -0.003   0.000   0.000   0.006  -0.000   0.000   0.000  -0.002  -0.001   0.000  -0.001   0.000  -0.000  -0.000
 -0.000   0.003  -0.001   0.007   0.000   0.001  -0.011   0.000   0.000   0.001   0.006   0.000   0.001   0.000   0.000   0.001
  0.000   0.000   0.000   0.000  -0.003   0.000   0.000   0.007   0.004   0.000   0.000   0.003   0.000   0.001   0.000   0.000
  0.000  -0.001   0.008  -0.001   0.000  -0.015   0.001   0.000   0.000   0.001   0.003   0.000   0.004   0.000   0.000   0.000
  0.000   0.000   0.000   0.000  -0.000   0.000   0.000   0.000   0.004   0.000   0.000   0.000   0.000   0.001   0.000   0.000
  0.000  -0.002   0.001  -0.000   0.000  -0.001   0.006   0.000   0.000  -0.001  -0.003   0.000   0.000   0.000  -0.000  -0.000
  0.000   0.000   0.000   0.000   0.000   0.000   0.000   0.007  -0.001   0.000   0.000  -0.003   0.000  -0.000   0.000   0.000
  0.000  -0.003  -0.000  -0.000   0.000  -0.002   0.000   0.000   0.000   0.002   0.003   0.000   0.001   0.000   0.000   0.000
  0.000  -0.002   0.001  -0.000   0.000  -0.001   0.005   0.000   0.000  -0.002  -0.006   0.000  -0.002   0.000  -0.000  -0.001
  0.000   0.000   0.000   0.000  -0.001   0.000   0.000  -0.003  -0.005   0.000   0.000  -0.004   0.000  -0.001   0.000   0.000
 -0.000   0.001   0.000   0.001   0.000   0.006  -0.001   0.000   0.000  -0.002  -0.005   0.000  -0.005   0.000  -0.000  -0.001
  0.000   0.000   0.000   0.000   0.001   0.000   0.000  -0.000  -0.005   0.000   0.000  -0.001   0.000  -0.001   0.000   0.000


------------------------ aborting loop because EDIFF is reached ----------------------------------------


 


 total charge     
 
# of ion       s       p       d       f       tot
--------------------------------------------------
    1        2.080   5.876   0.495   6.733  15.184
    2        2.080   5.876   0.495   6.733  15.184
    3        2.080   5.876   0.495   6.733  15.184
    4        2.080   5.876   0.495   6.733  15.184
    5        1.317   2.451   0.000   0.000   3.768
    6        1.317   2.451   0.000   0.000   3.768
    7        1.317   2.451   0.000   0.000   3.768
    8        1.317   2.451   0.000   0.000   3.768
--------------------------------------------------
tot         13.589  33.307   1.979  26.932  75.808

 


 magnetization (x)
 
# of ion       s       p       d       f       tot
--------------------------------------------------
    1        0.007   0.011  -0.090  -6.672  -6.745
    2        0.007   0.011  -0.090  -6.672  -6.744
    3       -0.007  -0.011   0.090   6.672   6.745
    4       -0.007  -0.011   0.090   6.672   6.745
    5        0.002   0.021   0.000   0.000   0.024
    6        0.002   0.021   0.000   0.000   0.024
    7       -0.002  -0.021   0.000   0.000  -0.024
    8       -0.002  -0.021   0.000   0.000  -0.024
--------------------------------------------------
tot          0.000  -0.000  -0.000   0.000   0.000

 
    CHARGE:  cpu time    1.8476: real time    1.8523
    FORLOC:  cpu time    0.0074: real time    0.0075
    FORNL :  cpu time   10.2702: real time   10.2962
    STRESS:  cpu time   30.8466: real time   30.9247
    FORCOR:  cpu time    0.1401: real time    0.1404
    FORHAR:  cpu time    0.0175: real time    0.0176
    MIXING:  cpu time    0.0049: real time    0.0051
    OFIELD:  cpu time    0.0001: real time    0.0001

  FORCE on cell =-STRESS in cart. coord.  units (eV):
  Direction    XX          YY          ZZ          XY          YZ          ZX
  --------------------------------------------------------------------------------------
  Alpha Z   598.91382   598.91382   598.91382
  Ewald   -2815.73982 -2809.42836 -2812.34004    -0.00000     4.11722    -0.00000
  Hartree  1022.63898  1025.91624  1024.27377     0.00000     2.32906    -0.00000
  E(xc)    -452.73410  -452.72115  -452.72748    -0.00000     0.00894     0.00000
  Local     505.99841   496.08013   500.67125    -0.00000    -6.50519    -0.00000
  n-local   -61.12573   -61.10186   -61.09710     0.17534    -0.00745    -0.25475
  augment    99.50491    99.49598    99.53316    -0.00000    -0.05190     0.00000
  Kinetic  1103.41734  1103.79691  1103.67534    -0.19927     0.18243     0.42780
  Fock        0.00000     0.00000     0.00000     0.00000     0.00000     0.00000
  -------------------------------------------------------------------------------------
  Total       0.87382     0.95170     0.90272     0.00000     0.07310     0.00000
  in kB       7.01151     7.63648     7.24340     0.00000     0.58655     0.00000
  external pressure =        7.30 kB  Pullay stress =        0.00 kB


 VOLUME and BASIS-vectors are now :
 -----------------------------------------------------------------------------
  energy-cutoff  :      520.00
  volume of cell :      199.67
      direct lattice vectors                 reciprocal lattice vectors
     4.129108459  0.000000000  0.000000000     0.242183031  0.000000000  0.000000000
     0.000000000  4.767477891  3.371109052     0.000000000  0.139836349  0.098879418
     0.000000000 -4.781551220  6.762121790     0.000000000 -0.069712377  0.098588390

  length of vectors
     4.129108459  5.838940116  8.281879205     0.242183031  0.171263959  0.120745543


 FORCES acting on ions
    electron-ion (+dipol)            ewald-force                    non-local-force                 convergence-correction
 -----------------------------------------------------------------------------------------------
   -.143E-13 -.891E+00 0.127E+01   0.247E-13 0.833E+00 -.119E+01   0.000E+00 0.560E-01 -.798E-01   0.130E-13 0.568E-03 -.647E-03
   0.255E-12 0.891E+00 -.127E+01   -.643E-14 -.833E+00 0.119E+01   0.000E+00 -.560E-01 0.798E-01   0.152E-13 -.568E-03 0.647E-03
   -.147E-13 -.864E+00 0.121E+01   -.285E-13 0.805E+00 -.113E+01   0.000E+00 0.551E-01 -.779E-01   0.114E-13 0.222E-02 -.313E-02
   0.255E-12 0.864E+00 -.121E+01   0.149E-13 -.805E+00 0.113E+01   0.000E+00 -.551E-01 0.779E-01   0.138E-13 -.222E-02 0.313E-02
   -.220E-14 -.617E+00 0.867E+00   0.162E-13 0.609E+00 -.855E+00   0.000E+00 0.138E-01 -.193E-01   0.530E-14 -.299E-03 0.411E-03
   0.159E-13 0.617E+00 -.867E+00   -.173E-13 -.609E+00 0.855E+00   0.000E+00 -.138E-01 0.193E-01   0.541E-14 0.299E-03 -.411E-03
   -.224E-14 -.610E+00 0.870E+00   -.133E-13 0.601E+00 -.857E+00   0.000E+00 0.138E-01 -.197E-01   0.529E-14 0.552E-03 -.791E-03
   0.158E-13 0.610E+00 -.870E+00   0.107E-13 -.601E+00 0.857E+00   0.000E+00 -.138E-01 0.197E-01   0.535E-14 -.552E-03 0.791E-03
 -----------------------------------------------------------------------------------------------
   0.508E-12 -.651E-10 0.829E-10   0.853E-15 0.477E-14 -.120E-13   0.000E+00 -.694E-17 0.278E-16   0.747E-13 -.983E-13 0.191E-12
 
 
 POSITION                                       TOTAL-FORCE (eV/Angst)
 -----------------------------------------------------------------------------------
      0.00000     -2.39312      3.38440         0.000000     -0.001750      0.002345
      2.06455     -1.20008      6.75381         0.000000      0.001750     -0.002345
      0.00000      4.76516      3.37436         0.000000     -0.001833      0.002711
      2.06455      1.19067      3.37284         0.000000      0.001833     -0.002711
      0.00000     -0.00762      5.06745         0.000000      0.005244     -0.007390
      2.06455      1.18190      8.44187         0.000000     -0.005244      0.007390
      0.00000      2.38311      1.68643         0.000000      0.005098     -0.007283
      2.06455     -1.19476      1.68965         0.000000     -0.005098      0.007283
 -----------------------------------------------------------------------------------
    total drift:                                0.000000     -0.000000      0.000000


--------------------------------------------------------------------------------------------------------



  FREE ENERGIE OF THE ION-ELECTRON SYSTEM (eV)
  ---------------------------------------------------
  free  energy   TOTEN  =       -74.92337183 eV

  energy  without entropy=      -74.92337183  energy(sigma->0) =      -74.92337183
 


--------------------------------------------------------------------------------------------------------


    POTLOK:  cpu time    1.7368: real time    1.7411


--------------------------------------------------------------------------------------------------------


     LOOP+:  cpu time 1027.3930: real time 1030.2150
    4ORBIT:  cpu time    0.0000: real time    0.0000
 


 total charge     
 
# of ion       s       p       d       f       tot
--------------------------------------------------
    1        2.080   5.876   0.495   6.733  15.184
    2        2.080   5.876   0.495   6.733  15.184
    3        2.080   5.876   0.495   6.733  15.184
    4        2.080   5.876   0.495   6.733  15.184
    5        1.317   2.451   0.000   0.000   3.768
    6        1.317   2.451   0.000   0.000   3.768
    7        1.317   2.451   0.000   0.000   3.768
    8        1.317   2.451   0.000   0.000   3.768
--------------------------------------------------
tot         13.589  33.307   1.979  26.932  75.808

 


 magnetization (x)
 
# of ion       s       p       d       f       tot
--------------------------------------------------
    1        0.007   0.011  -0.090  -6.672  -6.745
    2        0.007   0.011  -0.090  -6.672  -6.744
    3       -0.007  -0.011   0.090   6.672   6.745
    4       -0.007  -0.011   0.090   6.672   6.745
    5        0.002   0.021   0.000   0.000   0.024
    6        0.002   0.021   0.000   0.000   0.024
    7       -0.002  -0.021   0.000   0.000  -0.024
    8       -0.002  -0.021   0.000   0.000  -0.024
--------------------------------------------------
tot          0.000  -0.000  -0.000   0.000   0.000

 
 BZINTS: Fermi energy:  4.536691; 92.000000 electrons
         Band energy:-548.951901;  BLOECHL correction: -0.002150

 total amount of memory used by VASP MPI-rank0   184756. kBytes
=======================================================================

   base      :      30000. kBytes
   nonlr-proj:       4112. kBytes
   fftplans  :       4066. kBytes
   grid      :       9940. kBytes
   one-center:        196. kBytes
   wavefun   :     136442. kBytes
 
  
  
 General timing and accounting informations for this job:
 ========================================================
  
                  Total CPU time used (sec):     1042.962
                            User time (sec):     1038.641
                          System time (sec):        4.321
                         Elapsed time (sec):     1046.404
  
                   Maximum memory used (kb):      236012.
                   Average memory used (kb):           0.
  
                          Minor page faults:        88075
                          Major page faults:            0
                 Voluntary context switches:          339
