=========================================
SLURM_JOB_ID = 63601029
SLURM_JOB_NODELIST = lnode18
SLURM_GPUS = 
SLURM_CPUS_ON_NODE = 8
SLURM_JOB_PARTITION = lenovo
SLURM_TASK_PID = 223820
CUDA_VISIBLE_DEVICES = 
==========================================
 running on    8 total cores
 distrk:  each k-point on    8 cores,    1 groups
 distr:  one band on    4 cores,    2 groups
 using from now: INCAR     
 vasp.5.4.4.18Apr17-6-g9f103f2a35 (build Apr 28 2018 00:24:27) complex          
  
 POSCAR found type information on POSCAR  Ni O 
 POSCAR found :  2 types and      32 ions
 scaLAPACK will be used

 ----------------------------------------------------------------------------- 
|                                                                             |
|  ADVICE TO THIS USER RUNNING 'VASP/VAMP'   (HEAR YOUR MASTER'S VOICE ...):  |
|                                                                             |
|      You have a (more or less) 'large supercell' and for larger cells       |
|      it might be more efficient to use real space projection opertators     |
|      So try LREAL= Auto  in the INCAR   file.                               |
|      Mind:          For very  accurate calculation you might also keep the  |
|      reciprocal projection scheme          (i.e. LREAL=.FALSE.)             |
|                                                                             |
 ----------------------------------------------------------------------------- 

 LDA part: xc-table for Pade appr. of Perdew
 POSCAR, INCAR and KPOINTS ok, starting setup
 FFT: planning ...
 WAVECAR not read
 entering main loop
       N       E                     dE             d eps       ncg     rms          rms(c)
DAV:   1     0.530082548503E+04    0.53008E+04   -0.18094E+05 10080   0.187E+03
DAV:   2     0.411018133230E+03   -0.48898E+04   -0.46228E+04  8816   0.639E+02
DAV:   3    -0.175372312148E+03   -0.58639E+03   -0.54328E+03  9448   0.235E+02
DAV:   4    -0.207976519804E+03   -0.32604E+02   -0.31656E+02  9888   0.510E+01
DAV:   5    -0.208707096020E+03   -0.73058E+00   -0.72519E+00  9608   0.853E+00    0.609E+01
DAV:   6    -0.189224907374E+03    0.19482E+02   -0.26188E+02 11328   0.783E+01    0.699E+01
DAV:   7    -0.173724118601E+03    0.15501E+02   -0.57995E+01 10648   0.509E+01    0.292E+01
DAV:   8    -0.174031129720E+03   -0.30701E+00   -0.10089E+01  9584   0.716E+00    0.144E+01
DAV:   9    -0.173975370692E+03    0.55759E-01   -0.21340E-01 10344   0.213E+00    0.253E+00
DAV:  10    -0.173973351357E+03    0.20193E-02   -0.10859E-01  9688   0.143E+00    0.119E+00
DAV:  11    -0.173974532508E+03   -0.11812E-02   -0.78834E-03 11320   0.376E-01    0.829E-01
DAV:  12    -0.173977089869E+03   -0.25574E-02   -0.84471E-03 11456   0.430E-01    0.351E-01
DAV:  13    -0.173980042935E+03   -0.29531E-02   -0.15206E-03 10544   0.122E-01    0.205E-01
DAV:  14    -0.173980929623E+03   -0.88669E-03   -0.63470E-04 10608   0.108E-01    0.775E-02
DAV:  15    -0.173981052130E+03   -0.12251E-03   -0.15287E-04 10528   0.424E-02    0.420E-02
DAV:  16    -0.173981080500E+03   -0.28370E-04   -0.37616E-05 10864   0.290E-02    0.133E-02
DAV:  17    -0.173981090952E+03   -0.10452E-04   -0.84558E-06  8040   0.107E-02    0.374E-03
DAV:  18    -0.173981091093E+03   -0.14081E-06   -0.39694E-07  5120   0.284E-03
   1 F= -.17398109E+03 E0= -.17374171E+03  d E =-.478760E+00  mag=    11.8645
 writing wavefunctions
