unknown system                          
   1.00000000000000     
     1.420026    1.420026    1.420026
     1.420026   -1.420026   -1.420026
    -1.420026    1.420026   -1.420026
   Fe
     1
Direct
  0.000000  0.000000  0.000000
 
   36   36   36
 0.11581148297E+07 0.98951359724E+04 0.24685986161E+04 0.40257753194E+03 0.97380619065E+02
 0.50716410517E+02 0.30937343680E+02 0.17587383263E+02 0.93425317013E+01 0.47511507182E+01
 0.23533997039E+01 0.11477354252E+01 0.55474139803E+00 0.26697815305E+00 0.12833331319E+00
 0.62160079533E-01 0.30996303446E-01 0.17417320974E-01 0.13573417419E-01 0.17417320974E-01
 0.30996303446E-01 0.62160079533E-01 0.12833331319E+00 0.26697815305E+00 0.55474139803E+00
 0.11477354252E+01 0.23533997039E+01 0.47511507182E+01 0.93425317013E+01 0.17587383263E+02
 0.30937343680E+02 0.50716410517E+02 0.97380619065E+02 0.40257753194E+03 0.24685986161E+04
 0.98951359724E+04 0.98951359724E+04 0.82751207025E+04 0.28494238558E+04 0.54925143819E+03
 0.12217777199E+03 0.57259187545E+02 0.35271658368E+02 0.20607647111E+02 0.11180740969E+02
 0.57688676430E+01 0.28857478228E+01 0.14168366410E+01 0.68803480211E+00 0.33213822959E+00
 0.15992534406E+00 0.77305151127E-01 0.38028103768E-01 0.20229041183E-01 0.13736434269E-01
 0.14966488869E-01 0.24569210487E-01 0.47979593186E-01 0.98396987880E-01 0.20406985831E+00
 0.42353760293E+00 0.87613543541E+00 0.17987019963E+01 0.36446255166E+01 0.72230106677E+01
 0.13801557788E+02 0.24878338926E+02 0.41470916658E+02 0.69178396936E+02 0.18714021290E+03
 0.97746965559E+03 0.44473822989E+04 0.24685986161E+04 0.28494238558E+04 0.14295321725E+04
 0.40257750395E+03 0.11621822706E+03 0.58341853219E+02 0.36853545761E+02 0.22153543084E+02
 0.12330104280E+02 0.64937732008E+01 0.33009825241E+01 0.16412292138E+01 0.80494524353E+00
 0.39152576926E+00 0.18972210690E+00 0.91947854474E-01 0.45031844823E-01 0.23170618274E-01
 0.14161332382E-01 0.13014913553E-01 0.19096710232E-01 0.35754046826E-01 0.72342013042E-01
 0.14892941567E+00 0.30761996361E+00 0.63347440312E+00 0.12958617478E+01 0.26202157470E+01
 0.51989648970E+01 0.10007415510E+02 0.18362269417E+02 0.31390687764E+02 0.49897639302E+02
 0.87129524538E+02 0.25497606266E+03 0.97746965559E+03 0.40257753194E+03 0.54925143819E+03
 0.40257750395E+03 0.18714018790E+03 0.87129523372E+02 0.53329598571E+02 0.35271655108E+02
 0.21835069580E+02 0.12504433122E+02 0.67573113287E+01 0.35112857913E+01 0.17781181895E+01
 0.88550053552E+00 0.43625955875E+00 0.21356671033E+00 0.10430013304E+00 0.51194215602E-01
 0.25906670975E-01 0.14707600137E-01 0.11567770324E-01 0.14707628272E-01 0.25906739586E-01
 0.51194281654E-01 0.10430020985E+00 0.21356684390E+00 0.43625939027E+00 0.88550069203E+00
 0.17781202238E+01 0.35112827801E+01 0.67573149592E+01 0.12504431309E+02 0.21835074795E+02
 0.35271674027E+02 0.53329602015E+02 0.87129524538E+02 0.18714021290E+03 0.97380619065E+02
 0.12217777199E+03 0.11621822706E+03 0.87129523372E+02 0.61892469665E+02 0.44714631103E+02
 0.30937343103E+02 0.19733926081E+02 0.11658492107E+02 0.64937755355E+01 0.34680447541E+01
 0.17986988867E+01 0.91431822045E+00 0.45840992351E+00 0.22776324741E+00 0.11257808500E+00
 0.55686697325E-01 0.28037717864E-01 0.15207938075E-01 0.10510318659E-01 0.11383910733E-01
 0.18374810610E-01 0.35081187049E-01 0.70390924637E-01 0.14239799490E+00 0.28777748160E+00
 0.57775858318E+00 0.11476968287E+01 0.22446124753E+01 0.42908002407E+01 0.79354308435E+01
 0.13998316843E+02 0.23137795786E+02 0.35271674027E+02 0.49897639302E+02 0.69178396936E+02
 0.50716410517E+02 0.57259187545E+02 0.58341853219E+02 0.53329598571E+02 0.44714631103E+02
 0.34760428922E+02 0.24878356288E+02 0.16371253815E+02 0.10007419860E+02 0.57688555633E+01
 0.31815491683E+01 0.16983827858E+01 0.88548208455E+00 0.45386476314E+00 0.22985637239E+00
 0.11545116494E+00 0.57837799355E-01 0.29204855337E-01 0.15480036260E-01 0.96944767019E-02
 0.89700845715E-02 0.12861114176E-01 0.23441570489E-01 0.45949423556E-01 0.91718076607E-01
 0.18284244157E+00 0.36215482004E+00 0.70979868822E+00 0.13700249401E+01 0.25889918846E+01
 0.47511257973E+01 0.83768336152E+01 0.13998316843E+02 0.21835074795E+02 0.31390687764E+02
 0.41470916658E+02 0.30937343680E+02 0.35271658368E+02 0.36853545761E+02 0.35271655108E+02
 0.30937343103E+02 0.24878356288E+02 0.18362280370E+02 0.12504418519E+02 0.79354330194E+01
 0.47511273315E+01 0.27164490296E+01 0.14988181270E+01 0.80490279228E+00 0.42346588549E+00
 0.21944067586E+00 0.11245610531E+00 0.57260116426E-01 0.29214330720E-01 0.15332100680E-01
 0.90191015425E-02 0.72056480674E-02 0.90197392926E-02 0.15333175954E-01 0.29216236935E-01
 0.57261869344E-01 0.11245931161E+00 0.21944363483E+00 0.42346535221E+00 0.80490886663E+00
 0.14988137040E+01 0.27164637308E+01 0.47511257973E+01 0.79354308435E+01 0.12504431309E+02
 0.18362269417E+02 0.24878338926E+02 0.17587383263E+02 0.20607647111E+02 0.22153543084E+02
 0.21835069580E+02 0.19733926081E+02 0.16371253815E+02 0.12504418519E+02 0.88452749153E+01
 0.58448140432E+01 0.36445972743E+01 0.21667036555E+01 0.12396667558E+01 0.68798167672E+00
 0.37282063053E+00 0.19835934313E+00 0.10405807786E+00 0.54036452695E-01 0.27994048502E-01
 0.14708204203E-01 0.83378778563E-02 0.59215369158E-02 0.63903963773E-02 0.99161035221E-02
 0.18168189579E-01 0.34836316595E-01 0.67300464740E-01 0.12917620570E+00 0.24527270624E+00
 0.45837958456E+00 0.83965285853E+00 0.14988137040E+01 0.25889918846E+01 0.42908002407E+01
 0.67573149592E+01 0.10007415510E+02 0.13801557788E+02 0.93425317013E+01 0.11180740969E+02
 0.12330104280E+02 0.12504433122E+02 0.11658492107E+02 0.10007419860E+02 0.79354330194E+01
 0.58448140432E+01 0.40283355452E+01 0.26201954041E+01 0.16226556824E+01 0.96469332518E+00
 0.55469467881E+00 0.31043572120E+00 0.17003152879E+00 0.91556515566E-01 0.48642421422E-01
 0.25675004696E-01 0.13619655180E-01 0.75787955431E-02 0.49496435261E-02 0.46127677594E-02
 0.64034852756E-02 0.11111527462E-01 0.20756332839E-01 0.39334553595E-01 0.74262791556E-01
 0.13855880831E+00 0.25460203450E+00 0.45837958456E+00 0.80490886663E+00 0.13700249401E+01
 0.22446124753E+01 0.35112827801E+01 0.51989648970E+01 0.72230106677E+01 0.47511507182E+01
 0.57688676430E+01 0.64937732008E+01 0.67573113287E+01 0.64937755355E+01 0.57688555633E+01
 0.47511273315E+01 0.36445972743E+01 0.26201954041E+01 0.17781297008E+01 0.11476741918E+01
 0.70977105624E+00 0.42345765000E+00 0.24523415185E+00 0.13853911165E+00 0.76734687201E-01
 0.41812703766E-01 0.22553705728E-01 0.12144125140E-01 0.67327093398E-02 0.41593618745E-02
 0.34177941253E-02 0.41648025704E-02 0.67443516093E-02 0.12159414328E-01 0.22574743367E-01
 0.41832664816E-01 0.76765698264E-01 0.13855880831E+00 0.24527270624E+00 0.42346535221E+00
 0.70979868822E+00 0.11476968287E+01 0.17781202238E+01 0.26202157470E+01 0.36446255166E+01
 0.23533997039E+01 0.28857478228E+01 0.33009825241E+01 0.35112857913E+01 0.34680447541E+01
 0.31815491683E+01 0.27164490296E+01 0.21667036555E+01 0.16226556824E+01 0.11476741918E+01
 0.77172824533E+00 0.49644798784E+00 0.30747370784E+00 0.18442297178E+00 0.10763298389E+00
 0.61397751455E-01 0.34389976055E-01 0.18989590029E-01 0.10432882034E-01 0.58105196692E-02
 0.34929050829E-02 0.25893621967E-02 0.27738808788E-02 0.40926923776E-02 0.70675246024E-02
 0.12769300618E-01 0.23225836249E-01 0.41832664814E-01 0.74262791556E-01 0.12917620570E+00
 0.21944363483E+00 0.36215482003E+00 0.57775858318E+00 0.88550069203E+00 0.12958617478E+01
 0.17987019963E+01 0.11477354252E+01 0.14168366410E+01 0.16412292138E+01 0.17781181895E+01
 0.17986988867E+01 0.16983827858E+01 0.14988181270E+01 0.12396667558E+01 0.96469332517E+00
 0.70977105624E+00 0.49644798784E+00 0.33199205600E+00 0.21339825130E+00 0.13257881779E+00
 0.79978609713E-01 0.47051204391E-01 0.27110330730E-01 0.15367205471E-01 0.86298832839E-02
 0.48788777318E-02 0.29000709186E-02 0.20167074019E-02 0.19093411056E-02 0.25381386233E-02
 0.41172921117E-02 0.71945427051E-02 0.12769300618E-01 0.22574743365E-01 0.39334553595E-01
 0.67300464740E-01 0.11245931161E+00 0.18284244157E+00 0.28777748160E+00 0.43625939027E+00
 0.63347440312E+00 0.87613543541E+00 0.55474139805E+00 0.68803480211E+00 0.80494524353E+00
 0.88550053552E+00 0.91431822045E+00 0.88548208455E+00 0.80490279228E+00 0.68798167672E+00
 0.55469467881E+00 0.42345765000E+00 0.30747370784E+00 0.21339825130E+00 0.14225460194E+00
 0.91509885611E-01 0.57056676700E-01 0.34634327359E-01 0.20549133318E-01 0.11973853915E-01
 0.68975445563E-02 0.39837976250E-02 0.23883087701E-02 0.16117539080E-02 0.13966370155E-02
 0.16598606915E-02 0.24827718010E-02 0.41172921124E-02 0.70675246003E-02 0.12159414326E-01
 0.20756332839E-01 0.34836316595E-01 0.57261869341E-01 0.91718076603E-01 0.14239799490E+00
 0.21356684390E+00 0.30761996361E+00 0.42353760293E+00 0.26697815305E+00 0.33213822959E+00
 0.39152576926E+00 0.43625955875E+00 0.45840992351E+00 0.45386476314E+00 0.42346588549E+00
 0.37282063053E+00 0.31043572120E+00 0.24523415185E+00 0.18442297178E+00 0.13257881779E+00
 0.91509885609E-01 0.60892257199E-01 0.39231794057E-01 0.24571565356E-01 0.15025134710E-01
 0.90150896276E-02 0.53482778241E-02 0.31845408064E-02 0.19655546499E-02 0.13453660107E-02
 0.11262223877E-02 0.12279213921E-02 0.16598606914E-02 0.25381386231E-02 0.40926923786E-02
 0.67443516074E-02 0.11111527462E-01 0.18168189580E-01 0.29216236936E-01 0.45949423556E-01
 0.70390924637E-01 0.10430020985E+00 0.14892941567E+00 0.20406985831E+00 0.12833331319E+00
 0.15992534406E+00 0.18972210690E+00 0.21356671033E+00 0.22776324740E+00 0.22985637239E+00
 0.21944067586E+00 0.19835934313E+00 0.17003152879E+00 0.13853911165E+00 0.10763298389E+00
 0.79978609713E-01 0.57056676703E-01 0.39231794057E-01 0.26098344162E-01 0.16866815531E-01
 0.10639621736E-01 0.65923537259E-02 0.40549427347E-02 0.25254976752E-02 0.16554806923E-02
 0.12129314744E-02 0.10611343703E-02 0.11262223875E-02 0.13966370162E-02 0.19093411040E-02
 0.27738808781E-02 0.41648025706E-02 0.64034852760E-02 0.99161035216E-02 0.15333175954E-01
 0.23441570490E-01 0.35081187049E-01 0.51194281654E-01 0.72342013042E-01 0.98396987881E-01
 0.62160079531E-01 0.77305151126E-01 0.91947854473E-01 0.10430013304E+00 0.11257808500E+00
 0.11545116494E+00 0.11245610531E+00 0.10405807786E+00 0.91556515566E-01 0.76734687199E-01
 0.61397751455E-01 0.47051204391E-01 0.34634327360E-01 0.24571565356E-01 0.16866815532E-01
 0.11251554510E-01 0.73375086954E-02 0.47225670684E-02 0.30511660740E-02 0.20424031373E-02
 0.14868633658E-02 0.12422649384E-02 0.12129314742E-02 0.13453660106E-02 0.16117539093E-02
 0.20167074021E-02 0.25893621973E-02 0.34177941245E-02 0.46127677591E-02 0.63903963772E-02
 0.90197392930E-02 0.12861114176E-01 0.18374810610E-01 0.25906739587E-01 0.35754046826E-01
 0.47979593186E-01 0.30996303455E-01 0.38028103769E-01 0.45031844822E-01 0.51194215602E-01
 0.55686697325E-01 0.57837799355E-01 0.57260116425E-01 0.54036452695E-01 0.48642421422E-01
 0.41812703768E-01 0.34389976055E-01 0.27110330730E-01 0.20549133321E-01 0.15025134710E-01
 0.10639621734E-01 0.73375086960E-02 0.49730292798E-02 0.33661993792E-02 0.23448946999E-02
 0.17612331538E-02 0.15033472876E-02 0.14868633674E-02 0.16554806920E-02 0.19655546504E-02
 0.23883087656E-02 0.29000709194E-02 0.34929050820E-02 0.41593618750E-02 0.49496435266E-02
 0.59215369158E-02 0.72056480669E-02 0.89700845713E-02 0.11383910733E-01 0.14707628273E-01
 0.19096710231E-01 0.24569210487E-01 0.17417320970E-01 0.20229041183E-01 0.23170618273E-01
 0.25906670975E-01 0.28037717865E-01 0.29204855337E-01 0.29214330720E-01 0.27994048503E-01
 0.25675004697E-01 0.22553705728E-01 0.18989590029E-01 0.15367205471E-01 0.11973853916E-01
 0.90150896274E-02 0.65923537265E-02 0.47225670683E-02 0.33661993801E-02 0.24585158666E-02
 0.19273000400E-02 0.17116225140E-02 0.17612331544E-02 0.20424031371E-02 0.25254976755E-02
 0.31845408058E-02 0.39837976263E-02 0.48788777315E-02 0.58105196688E-02 0.67327093400E-02
 0.75787955435E-02 0.83378778564E-02 0.90191015423E-02 0.96944767015E-02 0.10510318660E-01
 0.11567770324E-01 0.13014913553E-01 0.14966488869E-01 0.13573417422E-01 0.13736434270E-01
 0.14161332382E-01 0.14707600136E-01 0.15207938076E-01 0.15480036258E-01 0.15332100684E-01
 0.14708204203E-01 0.13619655181E-01 0.12144125139E-01 0.10432882034E-01 0.86298832815E-02
 0.68975445532E-02 0.53482778253E-02 0.40549427346E-02 0.30511660767E-02 0.23448946987E-02
 0.19273000403E-02 0.17900563550E-02 0.19273000403E-02 0.23448946987E-02 0.30511660767E-02
 0.40549427346E-02 0.53482778253E-02 0.68975445532E-02 0.86298832816E-02 0.10432882034E-01
 0.12144125139E-01 0.13619655181E-01 0.14708204203E-01 0.15332100684E-01 0.15480036258E-01
 0.15207938076E-01 0.14707600136E-01 0.14161332382E-01 0.13736434270E-01 0.17417320970E-01
 0.14966488869E-01 0.13014913553E-01 0.11567770324E-01 0.10510318660E-01 0.96944767016E-02
 0.90191015423E-02 0.83378778564E-02 0.75787955435E-02 0.67327093400E-02 0.58105196688E-02
 0.48788777315E-02 0.39837976263E-02 0.31845408058E-02 0.25254976755E-02 0.20424031371E-02
 0.17612331544E-02 0.17116225140E-02 0.19273000400E-02 0.24585158666E-02 0.33661993801E-02
 0.47225670683E-02 0.65923537265E-02 0.90150896275E-02 0.11973853916E-01 0.15367205471E-01
 0.18989590029E-01 0.22553705728E-01 0.25675004697E-01 0.27994048503E-01 0.29214330720E-01
 0.29204855337E-01 0.28037717865E-01 0.25906670975E-01 0.23170618273E-01 0.20229041183E-01
 0.30996303455E-01 0.24569210487E-01 0.19096710231E-01 0.14707628273E-01 0.11383910733E-01
 0.89700845713E-02 0.72056480669E-02 0.59215369158E-02 0.49496435266E-02 0.41593618750E-02
 0.34929050820E-02 0.29000709194E-02 0.23883087656E-02 0.19655546504E-02 0.16554806920E-02
 0.14868633674E-02 0.15033472875E-02 0.17612331538E-02 0.23448946999E-02 0.33661993792E-02
 0.49730292798E-02 0.73375086960E-02 0.10639621734E-01 0.15025134710E-01 0.20549133321E-01
 0.27110330730E-01 0.34389976055E-01 0.41812703768E-01 0.48642421422E-01 0.54036452695E-01
 0.57260116425E-01 0.57837799355E-01 0.55686697325E-01 0.51194215602E-01 0.45031844822E-01
 0.38028103769E-01 0.62160079531E-01 0.47979593186E-01 0.35754046826E-01 0.25906739587E-01
 0.18374810610E-01 0.12861114176E-01 0.90197392930E-02 0.63903963772E-02 0.46127677591E-02
 0.34177941245E-02 0.25893621973E-02 0.20167074020E-02 0.16117539093E-02 0.13453660106E-02
 0.12129314742E-02 0.12422649384E-02 0.14868633658E-02 0.20424031373E-02 0.30511660740E-02
 0.47225670684E-02 0.73375086954E-02 0.11251554510E-01 0.16866815532E-01 0.24571565356E-01
 0.34634327360E-01 0.47051204391E-01 0.61397751455E-01 0.76734687199E-01 0.91556515566E-01
 0.10405807786E+00 0.11245610531E+00 0.11545116494E+00 0.11257808500E+00 0.10430013304E+00
 0.91947854473E-01 0.77305151126E-01 0.12833331319E+00 0.98396987880E-01 0.72342013042E-01
 0.51194281654E-01 0.35081187050E-01 0.23441570490E-01 0.15333175954E-01 0.99161035216E-02
 0.64034852760E-02 0.41648025706E-02 0.27738808781E-02 0.19093411040E-02 0.13966370162E-02
 0.11262223875E-02 0.10611343703E-02 0.12129314744E-02 0.16554806923E-02 0.25254976752E-02
 0.40549427347E-02 0.65923537259E-02 0.10639621736E-01 0.16866815531E-01 0.26098344162E-01
 0.39231794057E-01 0.57056676703E-01 0.79978609713E-01 0.10763298389E+00 0.13853911165E+00
 0.17003152879E+00 0.19835934313E+00 0.21944067586E+00 0.22985637239E+00 0.22776324740E+00
 0.21356671033E+00 0.18972210690E+00 0.15992534406E+00 0.26697815305E+00 0.20406985831E+00
 0.14892941567E+00 0.10430020985E+00 0.70390924637E-01 0.45949423556E-01 0.29216236936E-01
 0.18168189580E-01 0.11111527462E-01 0.67443516074E-02 0.40926923786E-02 0.25381386231E-02
 0.16598606914E-02 0.12279213921E-02 0.11262223877E-02 0.13453660107E-02 0.19655546499E-02
 0.31845408064E-02 0.53482778241E-02 0.90150896275E-02 0.15025134710E-01 0.24571565356E-01
 0.39231794057E-01 0.60892257199E-01 0.91509885609E-01 0.13257881779E+00 0.18442297178E+00
 0.24523415185E+00 0.31043572120E+00 0.37282063053E+00 0.42346588549E+00 0.45386476314E+00
 0.45840992351E+00 0.43625955875E+00 0.39152576926E+00 0.33213822959E+00 0.55474139805E+00
 0.42353760293E+00 0.30761996361E+00 0.21356684390E+00 0.14239799490E+00 0.91718076603E-01
 0.57261869341E-01 0.34836316595E-01 0.20756332839E-01 0.12159414326E-01 0.70675246003E-02
 0.41172921124E-02 0.24827718010E-02 0.16598606915E-02 0.13966370155E-02 0.16117539080E-02
 0.23883087701E-02 0.39837976250E-02 0.68975445563E-02 0.11973853914E-01 0.20549133318E-01
 0.34634327359E-01 0.57056676700E-01 0.91509885611E-01 0.14225460194E+00 0.21339825130E+00
 0.30747370784E+00 0.42345765000E+00 0.55469467881E+00 0.68798167672E+00 0.80490279228E+00
 0.88548208455E+00 0.91431822045E+00 0.88550053552E+00 0.80494524353E+00 0.68803480211E+00
 0.11477354252E+01 0.87613543541E+00 0.63347440312E+00 0.43625939027E+00 0.28777748160E+00
 0.18284244157E+00 0.11245931161E+00 0.67300464740E-01 0.39334553595E-01 0.22574743365E-01
 0.12769300618E-01 0.71945427051E-02 0.41172921117E-02 0.25381386233E-02 0.19093411056E-02
 0.20167074019E-02 0.29000709186E-02 0.48788777318E-02 0.86298832839E-02 0.15367205471E-01
 0.27110330730E-01 0.47051204391E-01 0.79978609713E-01 0.13257881779E+00 0.21339825130E+00
 0.33199205600E+00 0.49644798784E+00 0.70977105624E+00 0.96469332517E+00 0.12396667558E+01
 0.14988181270E+01 0.16983827858E+01 0.17986988867E+01 0.17781181895E+01 0.16412292138E+01
 0.14168366410E+01 0.23533997039E+01 0.17987019963E+01 0.12958617478E+01 0.88550069203E+00
 0.57775858318E+00 0.36215482003E+00 0.21944363483E+00 0.12917620570E+00 0.74262791556E-01
 0.41832664814E-01 0.23225836249E-01 0.12769300618E-01 0.70675246024E-02 0.40926923776E-02
 0.27738808788E-02 0.25893621967E-02 0.34929050829E-02 0.58105196693E-02 0.10432882034E-01
 0.18989590029E-01 0.34389976055E-01 0.61397751455E-01 0.10763298389E+00 0.18442297178E+00
 0.30747370784E+00 0.49644798784E+00 0.77172824533E+00 0.11476741918E+01 0.16226556824E+01
 0.21667036555E+01 0.27164490296E+01 0.31815491683E+01 0.34680447541E+01 0.35112857913E+01
 0.33009825241E+01 0.28857478228E+01 0.47511507182E+01 0.36446255166E+01 0.26202157470E+01
 0.17781202238E+01 0.11476968287E+01 0.70979868822E+00 0.42346535221E+00 0.24527270624E+00
 0.13855880831E+00 0.76765698264E-01 0.41832664816E-01 0.22574743367E-01 0.12159414328E-01
 0.67443516093E-02 0.41648025704E-02 0.34177941253E-02 0.41593618744E-02 0.67327093398E-02
 0.12144125140E-01 0.22553705728E-01 0.41812703766E-01 0.76734687201E-01 0.13853911165E+00
 0.24523415185E+00 0.42345765000E+00 0.70977105624E+00 0.11476741918E+01 0.17781297008E+01
 0.26201954041E+01 0.36445972743E+01 0.47511273315E+01 0.57688555633E+01 0.64937755355E+01
 0.67573113287E+01 0.64937732008E+01 0.57688676430E+01 0.93425317013E+01 0.72230106677E+01
 0.51989648970E+01 0.35112827801E+01 0.22446124753E+01 0.13700249401E+01 0.80490886663E+00
 0.45837958456E+00 0.25460203450E+00 0.13855880831E+00 0.74262791556E-01 0.39334553595E-01
 0.20756332839E-01 0.11111527462E-01 0.64034852757E-02 0.46127677594E-02 0.49496435261E-02
 0.75787955432E-02 0.13619655180E-01 0.25675004696E-01 0.48642421422E-01 0.91556515566E-01
 0.17003152879E+00 0.31043572120E+00 0.55469467881E+00 0.96469332518E+00 0.16226556824E+01
 0.26201954041E+01 0.40283355452E+01 0.58448140432E+01 0.79354330194E+01 0.10007419860E+02
 0.11658492107E+02 0.12504433122E+02 0.12330104280E+02 0.11180740969E+02 0.17587383263E+02
 0.13801557788E+02 0.10007415510E+02 0.67573149592E+01 0.42908002407E+01 0.25889918846E+01
 0.14988137040E+01 0.83965285853E+00 0.45837958456E+00 0.24527270624E+00 0.12917620570E+00
 0.67300464740E-01 0.34836316595E-01 0.18168189579E-01 0.99161035221E-02 0.63903963773E-02
 0.59215369158E-02 0.83378778563E-02 0.14708204203E-01 0.27994048502E-01 0.54036452695E-01
 0.10405807786E+00 0.19835934313E+00 0.37282063053E+00 0.68798167672E+00 0.12396667558E+01
 0.21667036555E+01 0.36445972743E+01 0.58448140432E+01 0.88452749153E+01 0.12504418519E+02
 0.16371253815E+02 0.19733926081E+02 0.21835069580E+02 0.22153543084E+02 0.20607647111E+02
 0.30937343680E+02 0.24878338926E+02 0.18362269417E+02 0.12504431309E+02 0.79354308435E+01
 0.47511257973E+01 0.27164637308E+01 0.14988137040E+01 0.80490886663E+00 0.42346535221E+00
 0.21944363483E+00 0.11245931161E+00 0.57261869344E-01 0.29216236936E-01 0.15333175954E-01
 0.90197392926E-02 0.72056480674E-02 0.90191015425E-02 0.15332100680E-01 0.29214330720E-01
 0.57260116426E-01 0.11245610531E+00 0.21944067586E+00 0.42346588549E+00 0.80490279228E+00
 0.14988181270E+01 0.27164490296E+01 0.47511273315E+01 0.79354330194E+01 0.12504418519E+02
 0.18362280370E+02 0.24878356288E+02 0.30937343103E+02 0.35271655108E+02 0.36853545761E+02
 0.35271658368E+02 0.50716410517E+02 0.41470916658E+02 0.31390687764E+02 0.21835074795E+02
 0.13998316843E+02 0.83768336152E+01 0.47511257973E+01 0.25889918846E+01 0.13700249401E+01
 0.70979868822E+00 0.36215482004E+00 0.18284244157E+00 0.91718076607E-01 0.45949423556E-01
 0.23441570489E-01 0.12861114176E-01 0.89700845715E-02 0.96944767019E-02 0.15480036260E-01
 0.29204855337E-01 0.57837799355E-01 0.11545116494E+00 0.22985637239E+00 0.45386476314E+00
 0.88548208455E+00 0.16983827858E+01 0.31815491683E+01 0.57688555633E+01 0.10007419860E+02
 0.16371253815E+02 0.24878356288E+02 0.34760428922E+02 0.44714631103E+02 0.53329598571E+02
 0.58341853219E+02 0.57259187545E+02 0.97380619065E+02 0.69178396936E+02 0.49897639302E+02
 0.35271674027E+02 0.23137795786E+02 0.13998316843E+02 0.79354308435E+01 0.42908002407E+01
 0.22446124753E+01 0.11476968287E+01 0.57775858318E+00 0.28777748160E+00 0.14239799490E+00
 0.70390924637E-01 0.35081187049E-01 0.18374810610E-01 0.11383910733E-01 0.10510318659E-01
 0.15207938075E-01 0.28037717864E-01 0.55686697325E-01 0.11257808500E+00 0.22776324741E+00
 0.45840992351E+00 0.91431822045E+00 0.17986988867E+01 0.34680447541E+01 0.64937755355E+01
 0.11658492107E+02 0.19733926081E+02 0.30937343103E+02 0.44714631103E+02 0.61892469665E+02
 0.87129523372E+02 0.11621822706E+03 0.12217777199E+03 0.40257753194E+03 0.18714021290E+03
 0.87129524538E+02 0.53329602015E+02 0.35271674027E+02 0.21835074795E+02 0.12504431309E+02
 0.67573149592E+01 0.35112827801E+01 0.17781202238E+01 0.88550069203E+00 0.43625939027E+00
 0.21356684390E+00 0.10430020985E+00 0.51194281654E-01 0.25906739586E-01 0.14707628272E-01
 0.11567770324E-01 0.14707600137E-01 0.25906670975E-01 0.51194215602E-01 0.10430013304E+00
 0.21356671033E+00 0.43625955875E+00 0.88550053552E+00 0.17781181895E+01 0.35112857913E+01
 0.67573113287E+01 0.12504433122E+02 0.21835069580E+02 0.35271655108E+02 0.53329598571E+02
 0.87129523372E+02 0.18714018790E+03 0.40257750395E+03 0.54925143819E+03 0.24685986161E+04
 0.97746965559E+03 0.25497606266E+03 0.87129524538E+02 0.49897639302E+02 0.31390687764E+02
 0.18362269417E+02 0.10007415510E+02 0.51989648970E+01 0.26202157470E+01 0.12958617478E+01
 0.63347440312E+00 0.30761996361E+00 0.14892941567E+00 0.72342013042E-01 0.35754046826E-01
 0.19096710232E-01 0.13014913553E-01 0.14161332382E-01 0.23170618274E-01 0.45031844823E-01
 0.91947854474E-01 0.18972210690E+00 0.39152576926E+00 0.80494524353E+00 0.16412292138E+01
 0.33009825241E+01 0.64937732008E+01 0.12330104280E+02 0.22153543084E+02 0.36853545761E+02
 0.58341853219E+02 0.11621822706E+03 0.40257750395E+03 0.14295321725E+04 0.28494238558E+04
 0.98951359724E+04 0.44473822989E+04 0.97746965559E+03 0.18714021290E+03 0.69178396936E+02
 0.41470916658E+02 0.24878338926E+02 0.13801557788E+02 0.72230106677E+01 0.36446255166E+01
 0.17987019963E+01 0.87613543541E+00 0.42353760293E+00 0.20406985831E+00 0.98396987880E-01
 0.47979593186E-01 0.24569210487E-01 0.14966488869E-01 0.13736434269E-01 0.20229041183E-01
 0.38028103768E-01 0.77305151127E-01 0.15992534406E+00 0.33213822959E+00 0.68803480211E+00
 0.14168366410E+01 0.28857478228E+01 0.57688676430E+01 0.11180740969E+02 0.20607647111E+02
 0.35271658368E+02 0.57259187545E+02 0.12217777199E+03 0.54925143819E+03 0.28494238558E+04
 0.82751207025E+04 0.98951359724E+04 0.82751207025E+04 0.28494238558E+04 0.54925143819E+03
 0.12217777199E+03 0.57259187545E+02 0.35271658368E+02 0.20607647111E+02 0.11180740969E+02
 0.57688676430E+01 0.28857478228E+01 0.14168366410E+01 0.68803480211E+00 0.33213822959E+00
 0.15992534406E+00 0.77305151126E-01 0.38028103768E-01 0.20229041183E-01 0.13736434269E-01
 0.14966488869E-01 0.24569210485E-01 0.47979593186E-01 0.98396987880E-01 0.20406985831E+00
 0.42353760293E+00 0.87613543541E+00 0.17987019963E+01 0.36446255166E+01 0.72230106677E+01
 0.13801557788E+02 0.24878338926E+02 0.41470916658E+02 0.69178396936E+02 0.18714021290E+03
 0.97746965559E+03 0.44473822989E+04 0.82751207025E+04 0.98951359550E+04 0.44473822824E+04
 0.97746965321E+03 0.18714022232E+03 0.69178392300E+02 0.41470915236E+02 0.24878347351E+02
 0.13801551492E+02 0.72230096996E+01 0.36446240406E+01 0.17987021854E+01 0.87613599734E+00
 0.42353673041E+00 0.20407048696E+00 0.98396184669E-01 0.47980312848E-01 0.24568460288E-01
 0.14967296829E-01 0.13735680924E-01 0.20229844434E-01 0.38027344582E-01 0.77305887823E-01
 0.15992450170E+00 0.33213892313E+00 0.68803409697E+00 0.14168370948E+01 0.28857466846E+01
 0.57688653033E+01 0.11180746996E+02 0.20607646311E+02 0.35271670230E+02 0.57259194380E+02
 0.12217776847E+03 0.54925145016E+03 0.28494238695E+04 0.28494238558E+04 0.44473822824E+04
 0.28494238701E+04 0.86604364757E+03 0.20124366989E+03 0.74738153059E+02 0.44714648184E+02
 0.27540625752E+02 0.15684494361E+02 0.83768211968E+01 0.42908180347E+01 0.21414040055E+01
 0.10518276419E+01 0.51166601764E+00 0.24772531314E+00 0.11970520005E+00 0.58244016185E-01
 0.29188154235E-01 0.16458115877E-01 0.12866292449E-01 0.16458092451E-01 0.29188166923E-01
 0.58243860220E-01 0.11970526906E+00 0.24772507118E+00 0.51166584705E+00 0.10518276828E+01
 0.21414053569E+01 0.42908187517E+01 0.83768144299E+01 0.15684489981E+02 0.27540621365E+02
 0.44714641811E+02 0.74738152159E+02 0.20124366677E+03 0.86604363300E+03 0.54925143819E+03
 0.97746965321E+03 0.86604364757E+03 0.40257750451E+03 0.14420069141E+03 0.69178401162E+02
 0.44039756099E+02 0.27943753038E+02 0.16371255222E+02 0.89668277590E+01 0.46907367064E+01
 0.23815181079E+01 0.11861656420E+01 0.58370166491E+00 0.28510459573E+00 0.13876302424E+00
 0.67724004077E-01 0.33627142084E-01 0.18033654010E-01 0.12332787989E-01 0.13404483297E-01
 0.21856167487E-01 0.42283068460E-01 0.85955870072E-01 0.17645248825E+00 0.36219961265E+00
 0.74009870392E+00 0.14988328148E+01 0.29929637006E+01 0.58448085099E+01 0.11026229537E+02
 0.19733922215E+02 0.32791908651E+02 0.50716376169E+02 0.84252003304E+02 0.20124365750E+03
 0.12217777199E+03 0.18714022232E+03 0.20124366989E+03 0.14420069141E+03 0.87129513777E+02
 0.57259193494E+02 0.39665634928E+02 0.25985933629E+02 0.15684482855E+02 0.88452906955E+01
 0.47511347740E+01 0.24681231579E+01 0.12534863354E+01 0.62698647941E+00 0.31052771459E+00
 0.15286621202E+00 0.75208229149E-01 0.37320154322E-01 0.19463307792E-01 0.12018218514E-01
 0.11082980907E-01 0.16093038097E-01 0.29778782572E-01 0.59418856196E-01 0.12064595997E+00
 0.24535770642E+00 0.49647575355E+00 0.99643719442E+00 0.19732684286E+01 0.38311960110E+01
 0.72230215469E+01 0.13043553373E+02 0.22153553242E+02 0.34760448379E+02 0.50716389662E+02
 0.74738157123E+02 0.57259187545E+02 0.69178392300E+02 0.74738153059E+02 0.69178401162E+02
 0.57259193494E+02 0.44714627583E+02 0.32791900289E+02 0.22153548542E+02 0.13801547612E+02
 0.80433276809E+01 0.44573902249E+01 0.23815155743E+01 0.12396844542E+01 0.63344075714E+00
 0.31954964862E+00 0.15977238625E+00 0.79596511273E-01 0.39736519487E-01 0.20476478640E-01
 0.11789399526E-01 0.93680251784E-02 0.11789521706E-01 0.20476851317E-01 0.39736884716E-01
 0.79597151268E-01 0.15977335416E+00 0.31954961761E+00 0.63344151078E+00 0.12396854861E+01
 0.23815184612E+01 0.44573858919E+01 0.80433399703E+01 0.13801556383E+02 0.22153548972E+02
 0.32791916839E+02 0.44714641562E+02 0.35271658368E+02 0.41470915236E+02 0.44714648184E+02
 0.44039756099E+02 0.39665634928E+02 0.32791900289E+02 0.24878350265E+02 0.17336743447E+02
 0.11180739360E+02 0.67573181795E+01 0.38794489388E+01 0.21414064909E+01 0.11476852177E+01
 0.60180850962E+00 0.31047707940E+00 0.15831992861E+00 0.80167165486E-01 0.40505789812E-01
 0.20827663360E-01 0.11522503395E-01 0.80737404357E-02 0.87254966948E-02 0.13823183957E-01
 0.25893339879E-01 0.50833015258E-01 0.10062770571E+00 0.19840462293E+00 0.38765371282E+00
 0.74786518177E+00 0.14167995215E+01 0.26202250106E+01 0.46907114600E+01 0.80433410746E+01
 0.13043547025E+02 0.19733921624E+02 0.27540616436E+02 0.20607647111E+02 0.24878347351E+02
 0.27540625752E+02 0.27943753038E+02 0.25985933629E+02 0.22153548542E+02 0.17336743447E+02
 0.12504426614E+02 0.83768155665E+01 0.52666664435E+01 0.31428046110E+01 0.17986988046E+01
 0.99640827687E+00 0.53808487893E+00 0.28499917096E+00 0.14872887640E+00 0.76834050845E-01
 0.39447084033E-01 0.20422372527E-01 0.11060488193E-01 0.70850734137E-02 0.65583575487E-02
 0.92810447167E-02 0.16498009651E-01 0.31623294210E-01 0.61537206763E-01 0.11945489507E+00
 0.22980833520E+00 0.43621700594E+00 0.81343858355E+00 0.14820026495E+01 0.26202243660E+01
 0.44573887225E+01 0.72230223088E+01 0.11026233630E+02 0.15684497737E+02 0.11180740969E+02
 0.13801551492E+02 0.15684494361E+02 0.16371255222E+02 0.15684482855E+02 0.13801547612E+02
 0.11180739360E+02 0.83768155665E+01 0.58448151668E+01 0.38311874231E+01 0.23815108808E+01
 0.14168022893E+01 0.81342595248E+00 0.45384879644E+00 0.24755734054E+00 0.13259557454E+00
 0.70094686037E-01 0.36699785301E-01 0.19242003323E-01 0.10356240473E-01 0.62504892083E-02
 0.50460688567E-02 0.62523814938E-02 0.10359744050E-01 0.19247485152E-01 0.36705649948E-01
 0.70103330324E-01 0.13260320877E+00 0.24756900490E+00 0.45384785707E+00 0.81343929836E+00
 0.14167985232E+01 0.23815175326E+01 0.38311945104E+01 0.58448048494E+01 0.83768148667E+01
 0.57688676430E+01 0.72230096997E+01 0.83768211968E+01 0.89668277590E+01 0.88452906955E+01
 0.80433276809E+01 0.67573181795E+01 0.52666664434E+01 0.38311874231E+01 0.26201930652E+01