unknown system                          
   1.00000000000000     
     1.420026    1.420026    1.420026
     1.420026   -1.420026   -1.420026
     0.000000    5.680104   -5.680104
   Fe
     4
Direct
  0.000000  0.000000  0.500000
  0.500000  0.500000  0.750000
  0.000000  0.000000  0.000000
  0.500000  0.500000  0.250000
 
   36   36  120
 0.46324593187E+07 0.39580543905E+05 0.98743944345E+04 0.16103100706E+04 0.38952245556E+03
 0.20286562664E+03 0.12374937031E+03 0.70349536742E+02 0.37370112208E+02 0.19004621040E+02
 0.94135971744E+01 0.45909391844E+01 0.22189676627E+01 0.10679113816E+01 0.51333510920E+00
 0.24863908147E+00 0.12398746599E+00 0.69666795850E-01 0.54294901659E-01 0.69666795850E-01
 0.12398746599E+00 0.24863908147E+00 0.51333510920E+00 0.10679113816E+01 0.22189676627E+01
 0.45909391844E+01 0.94135971743E+01 0.19004621040E+02 0.37370112208E+02 0.70349536742E+02
 0.12374937031E+03 0.20286562664E+03 0.38952245556E+03 0.16103100706E+04 0.98743944345E+04
 0.39580543905E+05 0.39580543905E+05 0.33100482780E+05 0.11397695368E+05 0.21970057047E+04
 0.48871106914E+03 0.22903672641E+03 0.14108663499E+03 0.82430605009E+02 0.44722926621E+02
 0.23075472042E+02 0.11542995447E+02 0.56673467443E+01 0.27521400843E+01 0.13285501782E+01
 0.63970350716E+00 0.30921774134E+00 0.15211407808E+00 0.80914781505E-01 0.54948312979E-01
 0.59864750836E-01 0.98277998849E-01 0.19191654141E+00 0.39358908627E+00 0.81627823208E+00
 0.16941505131E+01 0.35045438431E+01 0.71948019822E+01 0.14578505292E+02 0.28892042362E+02
 0.55206238780E+02 0.99513375430E+02 0.16588369334E+03 0.27671358514E+03 0.74856081059E+03
 0.39098786197E+04 0.17789529220E+05 0.98743944345E+04 0.11397695368E+05 0.57181286500E+04
 0.16103100044E+04 0.46487290562E+03 0.23336739393E+03 0.14741420812E+03 0.88614207973E+02
 0.49320391995E+02 0.25975098745E+02 0.13203920915E+02 0.65649158324E+01 0.32197854514E+01
 0.15661005297E+01 0.75889079374E+00 0.36779042320E+00 0.18012925774E+00 0.92680584670E-01
 0.56645785478E-01 0.52058110613E-01 0.76388253545E-01 0.14301585060E+00 0.28936850752E+00
 0.59571759969E+00 0.12304799153E+01 0.25338970287E+01 0.51834492516E+01 0.10480860754E+02
 0.20795859519E+02 0.40029648182E+02 0.73449074172E+02 0.12556279143E+03 0.19959057424E+03
 0.34851807053E+03 0.10199042465E+04 0.39098786197E+04 0.16103100706E+04 0.21970057047E+04
 0.16103100044E+04 0.74856075053E+03 0.34851807837E+03 0.21331838585E+03 0.14108667142E+03
 0.87340309367E+02 0.50017717238E+02 0.27029263657E+02 0.14045143047E+02 0.71124652582E+01
 0.35420039789E+01 0.17450379029E+01 0.85426707808E+00 0.41719895294E+00 0.20477753721E+00
 0.10362618854E+00 0.58832353906E-01 0.46270267579E-01 0.58831225267E-01 0.10362514871E+00
 0.20477876724E+00 0.41719897446E+00 0.85426943050E+00 0.17450357909E+01 0.35420041415E+01
 0.71124796610E+01 0.14045136281E+02 0.27029264837E+02 0.50017693661E+02 0.87340309742E+02
 0.14108669973E+03 0.21331837123E+03 0.34851807053E+03 0.74856081059E+03 0.38952245556E+03
 0.48871106914E+03 0.46487290562E+03 0.34851807837E+03 0.24756986398E+03 0.17885854073E+03
 0.12374941905E+03 0.78935700026E+02 0.46633960073E+02 0.25975120030E+02 0.13872182854E+02
 0.71947993744E+01 0.36572665108E+01 0.18336418619E+01 0.91105255845E+00 0.45031338689E+00
 0.22274669128E+00 0.11215051126E+00 0.60830430912E-01 0.42041381224E-01 0.45535741910E-01
 0.73500483998E-01 0.14032356781E+00 0.28156524111E+00 0.56959008634E+00 0.11511116626E+01
 0.23110322385E+01 0.45907897205E+01 0.89784411900E+01 0.17163216901E+02 0.31741718528E+02
 0.55993264191E+02 0.92551212307E+02 0.14108669973E+03 0.19959057424E+03 0.27671358514E+03
 0.20286562664E+03 0.22903672641E+03 0.23336739393E+03 0.21331838585E+03 0.17885854073E+03
 0.13904175679E+03 0.99513437429E+02 0.65484990570E+02 0.40029672289E+02 0.23075422157E+02
 0.12726202694E+02 0.67935384885E+01 0.35419277963E+01 0.18154583704E+01 0.91942464936E+00
 0.46180566432E+00 0.23134946997E+00 0.11682190226E+00 0.61919779613E-01 0.38779787862E-01
 0.35878027577E-01 0.51445380368E-01 0.93765143598E-01 0.18379865762E+00 0.36687122722E+00
 0.73137155420E+00 0.14486171717E+01 0.28391982984E+01 0.54800982170E+01 0.10355962924E+02
 0.19004508803E+02 0.33507322696E+02 0.55993264191E+02 0.87340309742E+02 0.12556279143E+03
 0.16588369334E+03 0.12374937031E+03 0.14108663499E+03 0.14741420812E+03 0.14108667142E+03
 0.12374941905E+03 0.99513437429E+02 0.73449092909E+02 0.50017656120E+02 0.31741724069E+02
 0.19004500430E+02 0.10865798041E+02 0.59952709198E+01 0.32196169952E+01 0.16938605701E+01
 0.87776268403E+00 0.44982501897E+00 0.22903984158E+00 0.11685644770E+00 0.61326517040E-01
 0.36076300969E-01 0.28823279229E-01 0.36079894108E-01 0.61331892454E-01 0.11686590095E+00
 0.22904687206E+00 0.44983718541E+00 0.87777481486E+00 0.16938596024E+01 0.32196370787E+01
 0.59952560830E+01 0.10865854222E+02 0.19004508803E+02 0.31741718528E+02 0.50017693661E+02
 0.73449074172E+02 0.99513375430E+02 0.70349536742E+02 0.82430605009E+02 0.88614207973E+02
 0.87340309367E+02 0.78935700026E+02 0.65484990570E+02 0.50017656120E+02 0.35381093929E+02
 0.23379234420E+02 0.14578387648E+02 0.86668078178E+01 0.49586621700E+01 0.27519381743E+01
 0.14912814877E+01 0.79343938620E+00 0.41623106337E+00 0.21614841786E+00 0.11197723399E+00
 0.58835890348E-01 0.33351099480E-01 0.23685519303E-01 0.25560272227E-01 0.39665765619E-01
 0.72671318918E-01 0.13934631805E+00 0.26920117300E+00 0.51670550959E+00 0.98109146512E+00
 0.18335175845E+01 0.33586097213E+01 0.59952560830E+01 0.10355962924E+02 0.17163216901E+02
 0.27029264837E+02 0.40029648182E+02 0.55206238780E+02 0.37370112208E+02 0.44722926621E+02
 0.49320391995E+02 0.50017717238E+02 0.46633960073E+02 0.40029672289E+02 0.31741724069E+02
 0.23379234420E+02 0.16113339451E+02 0.10480783450E+02 0.64906039761E+01 0.38587773972E+01
 0.22187732668E+01 0.12417414408E+01 0.68012205192E+00 0.36622258357E+00 0.19456736633E+00
 0.10269437147E+00 0.54476853400E-01 0.30313966167E-01 0.19802141042E-01 0.18450301597E-01
 0.25614118354E-01 0.44445935645E-01 0.83026032983E-01 0.15733712022E+00 0.29705247799E+00
 0.55423246173E+00 0.10184111938E+01 0.18335175845E+01 0.32196370787E+01 0.54800982170E+01
 0.89784411900E+01 0.14045136281E+02 0.20795859519E+02 0.28892042362E+02 0.19004621040E+02
 0.23075472042E+02 0.25975098745E+02 0.27029263657E+02 0.25975120030E+02 0.23075422157E+02
 0.19004500430E+02 0.14578387648E+02 0.10480783450E+02 0.71124964227E+01 0.45906938272E+01
 0.28390770749E+01 0.16938297685E+01 0.98095034758E+00 0.55416120138E+00 0.30694898543E+00
 0.16725637218E+00 0.90223702324E-01 0.48577894783E-01 0.26930106662E-01 0.16632068222E-01
 0.13672549117E-01 0.16659653803E-01 0.26977150731E-01 0.48637115156E-01 0.90299955761E-01
 0.16732941079E+00 0.30706539299E+00 0.55423246173E+00 0.98109146512E+00 0.16938596025E+01
 0.28391982984E+01 0.45907897205E+01 0.71124796610E+01 0.10480860754E+02 0.14578505292E+02
 0.94135971743E+01 0.11542995447E+02 0.13203920915E+02 0.14045143047E+02 0.13872182854E+02
 0.12726202694E+02 0.10865798041E+02 0.86668078178E+01 0.64906039761E+01 0.45906938272E+01
 0.30869084384E+01 0.19857909511E+01 0.12299084961E+01 0.73769028303E+00 0.43052800412E+00
 0.24558114643E+00 0.13755402401E+00 0.75953504551E-01 0.41734640589E-01 0.23249423173E-01
 0.13976980545E-01 0.10354735075E-01 0.11093687442E-01 0.16372903415E-01 0.28269100599E-01
 0.51077596541E-01 0.92903312081E-01 0.16732941080E+00 0.29705247798E+00 0.51670550959E+00
 0.87777481486E+00 0.14486171717E+01 0.23110322385E+01 0.35420041415E+01 0.51834492516E+01
 0.71948019823E+01 0.45909391843E+01 0.56673467443E+01 0.65649158324E+01 0.71124652582E+01
 0.71947993744E+01 0.67935384885E+01 0.59952709198E+01 0.49586621700E+01 0.38587773972E+01
 0.28390770749E+01 0.19857909511E+01 0.13279768740E+01 0.85358161465E+00 0.53030397797E+00
 0.31990183760E+00 0.18819549218E+00 0.10843273833E+00 0.61457396779E-01 0.34505654045E-01
 0.19504305375E-01 0.11600475765E-01 0.80744663248E-02 0.76374029947E-02 0.10148800553E-01
 0.16471716374E-01 0.28776959935E-01 0.51077596539E-01 0.90299955767E-01 0.15733712022E+00
 0.26920117300E+00 0.44983718541E+00 0.73137155419E+00 0.11511116626E+01 0.17450357909E+01
 0.25338970287E+01 0.35045438431E+01 0.22189676627E+01 0.27521400844E+01 0.32197854514E+01
 0.35420039789E+01 0.36572665108E+01 0.35419277963E+01 0.32196169952E+01 0.27519381743E+01
 0.22187732668E+01 0.16938297685E+01 0.12299084961E+01 0.85358161465E+00 0.56900916451E+00
 0.36603692339E+00 0.22823405133E+00 0.13855085383E+00 0.82212071680E-01 0.47909084794E-01
 0.27598083319E-01 0.15931894034E-01 0.95395740970E-02 0.64393133238E-02 0.55939261233E-02
 0.66424705646E-02 0.99265140629E-02 0.16471716373E-01 0.28269100603E-01 0.48637115148E-01
 0.83026032981E-01 0.13934631805E+00 0.22904687206E+00 0.36687122722E+00 0.56959008634E+00
 0.85426943050E+00 0.12304799153E+01 0.16941505131E+01 0.10679113816E+01 0.13285501782E+01
 0.15661005297E+01 0.17450379029E+01 0.18336418619E+01 0.18154583704E+01 0.16938605702E+01
 0.14912814877E+01 0.12417414408E+01 0.98095034758E+00 0.73769028303E+00 0.53030397797E+00
 0.36603692339E+00 0.24358038767E+00 0.15694652188E+00 0.98304157548E-01 0.60118366471E-01
 0.36077370417E-01 0.21412572392E-01 0.12756139958E-01 0.78709323979E-02 0.53719215431E-02
 0.44928231040E-02 0.49173308639E-02 0.66424705658E-02 0.10148800553E-01 0.16372903417E-01
 0.26977150724E-01 0.44445935649E-01 0.72671318921E-01 0.11686590095E+00 0.18379865761E+00
 0.28156524112E+00 0.41719897446E+00 0.59571759969E+00 0.81627823209E+00 0.51333510922E+00
 0.63970350716E+00 0.75889079374E+00 0.85426707808E+00 0.91105255845E+00 0.91942464937E+00
 0.87776268403E+00 0.79343938620E+00 0.68012205192E+00 0.55416120137E+00 0.43052800412E+00
 0.31990183760E+00 0.22823405133E+00 0.15694652188E+00 0.10440965256E+00 0.67475779886E-01
 0.42560393950E-01 0.26370234635E-01 0.16225104944E-01 0.10115589260E-01 0.66409087284E-02
 0.48658644341E-02 0.42382490189E-02 0.44928231037E-02 0.55939261185E-02 0.76374029916E-02
 0.11093687443E-01 0.16659653797E-01 0.25614118355E-01 0.39665765620E-01 0.61331892452E-01
 0.93765143596E-01 0.14032356782E+00 0.20477876724E+00 0.28936850752E+00 0.39358908627E+00
 0.24863908145E+00 0.30921774134E+00 0.36779042320E+00 0.41719895293E+00 0.45031338689E+00
 0.46180566432E+00 0.44982501897E+00 0.41623106337E+00 0.36622258358E+00 0.30694898543E+00
 0.24558114643E+00 0.18819549218E+00 0.13855085383E+00 0.98304157545E-01 0.67475779885E-01
 0.44998996622E-01 0.29336370299E-01 0.18872364499E-01 0.12191333131E-01 0.81627328189E-02
 0.59564163213E-02 0.49864063550E-02 0.48658644331E-02 0.53719215394E-02 0.64393133240E-02
 0.80744663274E-02 0.10354735077E-01 0.13672549110E-01 0.18450301599E-01 0.25560272224E-01
 0.36079894097E-01 0.51445380372E-01 0.73500483995E-01 0.10362514871E+00 0.14301585060E+00
 0.19191654141E+00 0.12398746597E+00 0.15211407808E+00 0.18012925774E+00 0.20477753722E+00
 0.22274669129E+00 0.23134946998E+00 0.22903984157E+00 0.21614841786E+00 0.19456736632E+00
 0.16725637218E+00 0.13755402401E+00 0.10843273833E+00 0.82212071691E-01 0.60118366475E-01
 0.42560393950E-01 0.29336370300E-01 0.19869593407E-01 0.13440258784E-01 0.93549246640E-02
 0.70250621701E-02 0.60028253776E-02 0.59564163244E-02 0.66409087276E-02 0.78709324014E-02
 0.95395741029E-02 0.11600475769E-01 0.13976980543E-01 0.16632068221E-01 0.19802141039E-01
 0.23685519307E-01 0.28823279242E-01 0.35878027578E-01 0.45535741901E-01 0.58831225266E-01
 0.76388253539E-01 0.98277998851E-01 0.69666795831E-01 0.80914781504E-01 0.92680584663E-01
 0.10362618854E+00 0.11215051126E+00 0.11682190226E+00 0.11685644771E+00 0.11197723399E+00
 0.10269437146E+00 0.90223702321E-01 0.75953504554E-01 0.61457396780E-01 0.47909084801E-01
 0.36077370416E-01 0.26370234637E-01 0.18872364499E-01 0.13440258782E-01 0.98061098624E-02
 0.76820680260E-02 0.68193485784E-02 0.70250621752E-02 0.81627328187E-02 0.10115589261E-01
 0.12756139958E-01 0.15931894035E-01 0.19504305376E-01 0.23249423177E-01 0.26930106659E-01
 0.30313966168E-01 0.33351099484E-01 0.36076300974E-01 0.38779787862E-01 0.42041381221E-01
 0.46270267577E-01 0.52058110609E-01 0.59864750836E-01 0.54294901712E-01 0.54948312992E-01
 0.56645785447E-01 0.58832353902E-01 0.60830430930E-01 0.61919779608E-01 0.61326517085E-01
 0.58835890376E-01 0.54476853384E-01 0.48577894799E-01 0.41734640639E-01 0.34505654037E-01
 0.27598083308E-01 0.21412572386E-01 0.16225104932E-01 0.12191333104E-01 0.93549246536E-02
 0.76820680011E-02 0.71321359721E-02 0.76820680025E-02 0.93549246541E-02 0.12191333104E-01
 0.16225104932E-01 0.21412572386E-01 0.27598083308E-01 0.34505654037E-01 0.41734640639E-01
 0.48577894799E-01 0.54476853384E-01 0.58835890376E-01 0.61326517085E-01 0.61919779608E-01
 0.60830430930E-01 0.58832353902E-01 0.56645785447E-01 0.54948312993E-01 0.69666795831E-01
 0.59864750836E-01 0.52058110609E-01 0.46270267577E-01 0.42041381221E-01 0.38779787862E-01
 0.36076300974E-01 0.33351099484E-01 0.30313966169E-01 0.26930106659E-01 0.23249423177E-01
 0.19504305376E-01 0.15931894035E-01 0.12756139958E-01 0.10115589261E-01 0.81627328188E-02
 0.70250621751E-02 0.68193485789E-02 0.76820680271E-02 0.98061098621E-02 0.13440258782E-01
 0.18872364499E-01 0.26370234637E-01 0.36077370416E-01 0.47909084801E-01 0.61457396780E-01
 0.75953504555E-01 0.90223702321E-01 0.10269437146E+00 0.11197723399E+00 0.11685644771E+00
 0.11682190226E+00 0.11215051126E+00 0.10362618854E+00 0.92680584663E-01 0.80914781504E-01
 0.12398746597E+00 0.98277998851E-01 0.76388253539E-01 0.58831225266E-01 0.45535741901E-01
 0.35878027578E-01 0.28823279242E-01 0.23685519307E-01 0.19802141039E-01 0.16632068221E-01
 0.13976980543E-01 0.11600475769E-01 0.95395741029E-02 0.78709324014E-02 0.66409087275E-02
 0.59564163244E-02 0.60028253777E-02 0.70250621704E-02 0.93549246642E-02 0.13440258784E-01
 0.19869593406E-01 0.29336370300E-01 0.42560393950E-01 0.60118366475E-01 0.82212071691E-01
 0.10843273833E+00 0.13755402401E+00 0.16725637218E+00 0.19456736632E+00 0.21614841786E+00
 0.22903984157E+00 0.23134946998E+00 0.22274669129E+00 0.20477753722E+00 0.18012925774E+00
 0.15211407808E+00 0.24863908145E+00 0.19191654141E+00 0.14301585060E+00 0.10362514871E+00
 0.73500483995E-01 0.51445380373E-01 0.36079894097E-01 0.25560272224E-01 0.18450301599E-01
 0.13672549110E-01 0.10354735076E-01 0.80744663274E-02 0.64393133240E-02 0.53719215394E-02
 0.48658644331E-02 0.49864063550E-02 0.59564163214E-02 0.81627328190E-02 0.12191333131E-01
 0.18872364500E-01 0.29336370299E-01 0.44998996622E-01 0.67475779885E-01 0.98304157545E-01
 0.13855085383E+00 0.18819549218E+00 0.24558114643E+00 0.30694898543E+00 0.36622258357E+00
 0.41623106337E+00 0.44982501897E+00 0.46180566432E+00 0.45031338689E+00 0.41719895293E+00
 0.36779042320E+00 0.30921774134E+00 0.51333510922E+00 0.39358908627E+00 0.28936850752E+00
 0.20477876724E+00 0.14032356782E+00 0.93765143596E-01 0.61331892452E-01 0.39665765620E-01
 0.25614118355E-01 0.16659653797E-01 0.11093687443E-01 0.76374029916E-02 0.55939261185E-02
 0.44928231037E-02 0.42382490190E-02 0.48658644342E-02 0.66409087287E-02 0.10115589260E-01
 0.16225104944E-01 0.26370234635E-01 0.42560393950E-01 0.67475779886E-01 0.10440965256E+00
 0.15694652188E+00 0.22823405133E+00 0.31990183760E+00 0.43052800412E+00 0.55416120137E+00
 0.68012205192E+00 0.79343938620E+00 0.87776268403E+00 0.91942464937E+00 0.91105255845E+00
 0.85426707808E+00 0.75889079374E+00 0.63970350716E+00 0.10679113816E+01 0.81627823209E+00
 0.59571759969E+00 0.41719897446E+00 0.28156524112E+00 0.18379865761E+00 0.11686590095E+00
 0.72671318921E-01 0.44445935649E-01 0.26977150724E-01 0.16372903417E-01 0.10148800553E-01
 0.66424705658E-02 0.49173308639E-02 0.44928231041E-02 0.53719215431E-02 0.78709323980E-02
 0.12756139958E-01 0.21412572392E-01 0.36077370417E-01 0.60118366471E-01 0.98304157548E-01
 0.15694652188E+00 0.24358038767E+00 0.36603692339E+00 0.53030397797E+00 0.73769028303E+00
 0.98095034758E+00 0.12417414408E+01 0.14912814877E+01 0.16938605702E+01 0.18154583704E+01
 0.18336418619E+01 0.17450379029E+01 0.15661005297E+01 0.13285501782E+01 0.22189676627E+01
 0.16941505131E+01 0.12304799153E+01 0.85426943050E+00 0.56959008634E+00 0.36687122722E+00
 0.22904687206E+00 0.13934631805E+00 0.83026032981E-01 0.48637115148E-01 0.28269100603E-01
 0.16471716373E-01 0.99265140629E-02 0.66424705646E-02 0.55939261234E-02 0.64393133238E-02
 0.95395740971E-02 0.15931894034E-01 0.27598083319E-01 0.47909084794E-01 0.82212071680E-01
 0.13855085383E+00 0.22823405133E+00 0.36603692339E+00 0.56900916451E+00 0.85358161465E+00
 0.12299084961E+01 0.16938297685E+01 0.22187732668E+01 0.27519381743E+01 0.32196169952E+01
 0.35419277963E+01 0.36572665108E+01 0.35420039789E+01 0.32197854514E+01 0.27521400844E+01
 0.45909391843E+01 0.35045438431E+01 0.25338970287E+01 0.17450357909E+01 0.11511116626E+01
 0.73137155419E+00 0.44983718541E+00 0.26920117300E+00 0.15733712022E+00 0.90299955767E-01
 0.51077596539E-01 0.28776959935E-01 0.16471716374E-01 0.10148800553E-01 0.76374029948E-02
 0.80744663248E-02 0.11600475765E-01 0.19504305375E-01 0.34505654044E-01 0.61457396779E-01
 0.10843273833E+00 0.18819549218E+00 0.31990183760E+00 0.53030397797E+00 0.85358161465E+00
 0.13279768740E+01 0.19857909511E+01 0.28390770749E+01 0.38587773972E+01 0.49586621700E+01
 0.59952709198E+01 0.67935384885E+01 0.71947993744E+01 0.71124652582E+01 0.65649158324E+01
 0.56673467443E+01 0.94135971743E+01 0.71948019822E+01 0.51834492516E+01 0.35420041415E+01
 0.23110322385E+01 0.14486171717E+01 0.87777481486E+00 0.51670550959E+00 0.29705247798E+00
 0.16732941080E+00 0.92903312081E-01 0.51077596541E-01 0.28269100599E-01 0.16372903415E-01
 0.11093687442E-01 0.10354735075E-01 0.13976980544E-01 0.23249423173E-01 0.41734640589E-01
 0.75953504551E-01 0.13755402401E+00 0.24558114643E+00 0.43052800412E+00 0.73769028303E+00
 0.12299084961E+01 0.19857909511E+01 0.30869084384E+01 0.45906938272E+01 0.64906039761E+01
 0.86668078178E+01 0.10865798041E+02 0.12726202694E+02 0.13872182854E+02 0.14045143047E+02
 0.13203920915E+02 0.11542995447E+02 0.19004621040E+02 0.14578505292E+02 0.10480860754E+02
 0.71124796610E+01 0.45907897205E+01 0.28391982984E+01 0.16938596025E+01 0.98109146512E+00
 0.55423246173E+00 0.30706539299E+00 0.16732941079E+00 0.90299955761E-01 0.48637115156E-01
 0.26977150731E-01 0.16659653803E-01 0.13672549117E-01 0.16632068222E-01 0.26930106662E-01
 0.48577894783E-01 0.90223702324E-01 0.16725637218E+00 0.30694898543E+00 0.55416120138E+00
 0.98095034758E+00 0.16938297685E+01 0.28390770749E+01 0.45906938272E+01 0.71124964227E+01
 0.10480783450E+02 0.14578387648E+02 0.19004500430E+02 0.23075422157E+02 0.25975120030E+02
 0.27029263657E+02 0.25975098745E+02 0.23075472042E+02 0.37370112208E+02 0.28892042362E+02
 0.20795859519E+02 0.14045136281E+02 0.89784411900E+01 0.54800982170E+01 0.32196370787E+01
 0.18335175845E+01 0.10184111938E+01 0.55423246173E+00 0.29705247799E+00 0.15733712022E+00
 0.83026032983E-01 0.44445935645E-01 0.25614118354E-01 0.18450301597E-01 0.19802141042E-01
 0.30313966167E-01 0.54476853400E-01 0.10269437147E+00 0.19456736633E+00 0.36622258357E+00
 0.68012205192E+00 0.12417414408E+01 0.22187732668E+01 0.38587773972E+01 0.64906039761E+01
 0.10480783450E+02 0.16113339451E+02 0.23379234420E+02 0.31741724069E+02 0.40029672289E+02
 0.46633960073E+02 0.50017717238E+02 0.49320391995E+02 0.44722926621E+02 0.70349536742E+02
 0.55206238780E+02 0.40029648182E+02 0.27029264837E+02 0.17163216901E+02 0.10355962924E+02
 0.59952560830E+01 0.33586097213E+01 0.18335175845E+01 0.98109146512E+00 0.51670550959E+00
 0.26920117300E+00 0.13934631805E+00 0.72671318918E-01 0.39665765619E-01 0.25560272227E-01
 0.23685519303E-01 0.33351099481E-01 0.58835890348E-01 0.11197723399E+00 0.21614841786E+00
 0.41623106337E+00 0.79343938620E+00 0.14912814877E+01 0.27519381743E+01 0.49586621700E+01
 0.86668078178E+01 0.14578387648E+02 0.23379234420E+02 0.35381093929E+02 0.50017656120E+02
 0.65484990570E+02 0.78935700026E+02 0.87340309367E+02 0.88614207973E+02 0.82430605009E+02
 0.12374937031E+03 0.99513375430E+02 0.73449074172E+02 0.50017693661E+02 0.31741718528E+02
 0.19004508803E+02 0.10865854222E+02 0.59952560830E+01 0.32196370787E+01 0.16938596024E+01
 0.87777481486E+00 0.44983718541E+00 0.22904687206E+00 0.11686590095E+00 0.61331892454E-01
 0.36079894108E-01 0.28823279229E-01 0.36076300969E-01 0.61326517040E-01 0.11685644770E+00
 0.22903984158E+00 0.44982501897E+00 0.87776268403E+00 0.16938605701E+01 0.32196169952E+01
 0.59952709198E+01 0.10865798041E+02 0.19004500430E+02 0.31741724069E+02 0.50017656120E+02
 0.73449092909E+02 0.99513437429E+02 0.12374941905E+03 0.14108667142E+03 0.14741420812E+03
 0.14108663499E+03 0.20286562664E+03 0.16588369334E+03 0.12556279143E+03 0.87340309742E+02
 0.55993264191E+02 0.33507322696E+02 0.19004508803E+02 0.10355962924E+02 0.54800982170E+01
 0.28391982984E+01 0.14486171717E+01 0.73137155420E+00 0.36687122722E+00 0.18379865762E+00
 0.93765143598E-01 0.51445380368E-01 0.35878027577E-01 0.38779787862E-01 0.61919779613E-01
 0.11682190226E+00 0.23134946997E+00 0.46180566432E+00 0.91942464936E+00 0.18154583704E+01
 0.35419277963E+01 0.67935384885E+01 0.12726202694E+02 0.23075422157E+02 0.40029672289E+02
 0.65484990570E+02 0.99513437429E+02 0.13904175679E+03 0.17885854073E+03 0.21331838585E+03
 0.23336739393E+03 0.22903672641E+03 0.38952245556E+03 0.27671358514E+03 0.19959057424E+03
 0.14108669973E+03 0.92551212307E+02 0.55993264191E+02 0.31741718528E+02 0.17163216901E+02
 0.89784411900E+01 0.45907897205E+01 0.23110322385E+01 0.11511116626E+01 0.56959008634E+00
 0.28156524111E+00 0.14032356781E+00 0.73500483998E-01 0.45535741910E-01 0.42041381223E-01
 0.60830430912E-01 0.11215051126E+00 0.22274669128E+00 0.45031338689E+00 0.91105255845E+00
 0.18336418619E+01 0.36572665108E+01 0.71947993744E+01 0.13872182854E+02 0.25975120030E+02
 0.46633960073E+02 0.78935700026E+02 0.12374941905E+03 0.17885854073E+03 0.24756986398E+03
 0.34851807837E+03 0.46487290562E+03 0.48871106914E+03 0.16103100706E+04 0.74856081059E+03
 0.34851807053E+03 0.21331837123E+03 0.14108669973E+03 0.87340309742E+02 0.50017693661E+02
 0.27029264837E+02 0.14045136281E+02 0.71124796610E+01 0.35420041415E+01 0.17450357909E+01
 0.85426943050E+00 0.41719897446E+00 0.20477876724E+00 0.10362514871E+00 0.58831225267E-01
 0.46270267579E-01 0.58832353906E-01 0.10362618854E+00 0.20477753721E+00 0.41719895294E+00
 0.85426707808E+00 0.17450379029E+01 0.35420039789E+01 0.71124652582E+01 0.14045143047E+02
 0.27029263657E+02 0.50017717238E+02 0.87340309367E+02 0.14108667142E+03 0.21331838585E+03
 0.34851807837E+03 0.74856075053E+03 0.16103100044E+04 0.21970057047E+04 0.98743944345E+04
 0.39098786197E+04 0.10199042465E+04 0.34851807053E+03 0.19959057424E+03 0.12556279143E+03
 0.73449074172E+02 0.40029648182E+02 0.20795859519E+02 0.10480860754E+02 0.51834492516E+01
 0.25338970287E+01 0.12304799153E+01 0.59571759969E+00 0.28936850752E+00 0.14301585060E+00
 0.76388253544E-01 0.52058110613E-01 0.56645785478E-01 0.92680584670E-01 0.18012925774E+00
 0.36779042320E+00 0.75889079374E+00 0.15661005297E+01 0.32197854514E+01 0.65649158324E+01
 0.13203920915E+02 0.25975098745E+02 0.49320391995E+02 0.88614207973E+02 0.14741420812E+03
 0.23336739393E+03 0.46487290562E+03 0.16103100044E+04 0.57181286500E+04 0.11397695368E+05
 0.39580543905E+05 0.17789529220E+05 0.39098786197E+04 0.74856081059E+03 0.27671358514E+03
 0.16588369334E+03 0.99513375430E+02 0.55206238780E+02 0.28892042362E+02 0.14578505292E+02
 0.71948019823E+01 0.35045438431E+01 0.16941505131E+01 0.81627823209E+00 0.39358908627E+00
 0.19191654141E+00 0.98277998849E-01 0.59864750837E-01 0.54948312979E-01 0.80914781504E-01
 0.15211407808E+00 0.30921774134E+00 0.63970350716E+00 0.13285501782E+01 0.27521400843E+01
 0.56673467443E+01 0.11542995447E+02 0.23075472042E+02 0.44722926621E+02 0.82430605009E+02
 0.14108663499E+03 0.22903672641E+03 0.48871106914E+03 0.21970057047E+04 0.11397695368E+05
 0.33100482780E+05 0.40580631211E+05 0.24615831398E+05 0.66331871023E+04 0.12261538188E+04
 0.34996481250E+03 0.19366293873E+03 0.11867360307E+03 0.67502724405E+02 0.35926108628E+02
 0.18317801573E+02 0.90979656968E+01 0.44484904285E+01 0.21551361116E+01 0.10394777134E+01
 0.50060228822E+00 0.24287289486E+00 0.12132574978E+00 0.68261657093E-01 0.53256804530E-01
 0.68261657092E-01 0.12132574978E+00 0.24287289486E+00 0.50060228822E+00 0.10394777134E+01
 0.21551361116E+01 0.44484904285E+01 0.90979656968E+01 0.18317801573E+02 0.35926108628E+02
 0.67502724405E+02 0.11867360307E+03 0.19366293873E+03 0.34996481250E+03 0.12261538188E+04
 0.66331871023E+04 0.24615831398E+05 0.24615831398E+05 0.21103228883E+05 0.75959130042E+04
 0.16296051901E+04 0.42590088525E+03 0.21748867570E+03 0.13528145585E+03 0.79072508144E+02
 0.42967937684E+02 0.22224616031E+02 0.11147368156E+02 0.54875442413E+01 0.26712309757E+01
 0.12922805444E+01 0.62346506989E+00 0.30190938552E+00 0.14876629298E+00 0.79253062878E-01
 0.53886319483E-01 0.58683862098E-01 0.96222515146E-01 0.18757912010E+00 0.38408092753E+00
 0.79508059208E+00 0.16467532087E+01 0.33988963160E+01 0.69605671715E+01 0.14066076918E+02
 0.27802403890E+02 0.53004842086E+02 0.95440453124E+02 0.15894404667E+03 0.25894267868E+03
 0.61756004577E+03 0.27806353846E+04 0.11597671347E+05 0.66331871023E+04 0.75959130042E+04
 0.39678403446E+04 0.12261537493E+04 0.40786090570E+03 0.22135331673E+03 0.14133420701E+03
 0.84996234506E+02 0.47369934886E+02 0.25005569848E+02 0.12744961463E+02 0.63534004391E+01
 0.31236889194E+01 0.15226881377E+01 0.73930781378E+00 0.35895978732E+00 0.17608044478E+00
 0.90752351008E-01 0.55534944486E-01 0.51059659403E-01 0.74824974201E-01 0.13988688753E+00
 0.28256527353E+00 0.58070990205E+00 0.11971725477E+01 0.24601316787E+01 0.50206728566E+01
 0.10125597284E+02 0.20037108297E+02 0.38473523501E+02 0.70470836275E+02 0.12041186073E+03
 0.19062788054E+03 0.31768376661E+03 0.81219553291E+03 0.27806353846E+04 0.12261538188E+04
 0.16296051901E+04 0.12261537493E+04 0.61755998663E+03 0.31768377715E+03 0.20326503636E+03
 0.13528149222E+03 0.83775910236E+02 0.48037575064E+02 0.26016408621E+02 0.13553515755E+02
 0.68812267594E+01 0.34350885201E+01 0.16960563057E+01 0.83196325540E+00 0.40706536531E+00
 0.20010629029E+00 0.10144050556E+00 0.57655651290E-01 0.45398773080E-01 0.57657254082E-01
 0.10144159564E+00 0.20010653604E+00 0.40706495437E+00 0.83196495448E+00 0.16960539183E+01
 0.34350874788E+01 0.68812423652E+01 0.13553509686E+02 0.26016410926E+02 0.48037553976E+02
 0.83775905111E+02 0.13528152361E+03 0.20326502511E+03 0.31768376661E+03 0.61756004577E+03
 0.34996481250E+03 0.42590088525E+03 0.40786090570E+03 0.31768377715E+03 0.23389856551E+03
 0.17123267260E+03 0.11867365657E+03 0.75725088019E+02 0.44797767847E+02 0.25005588363E+02
 0.13387293600E+02 0.69605655082E+01 0.35464614783E+01 0.17820445251E+01 0.88709979137E+00
 0.43928274584E+00 0.21762524254E+00 0.10975429112E+00 0.59610863809E-01 0.41247885053E-01
 0.44658150591E-01 0.71995075464E-01 0.13724693842E+00 0.27495665048E+00 0.55530267327E+00
 0.11201925939E+01 0.22442446579E+01 0.44483436633E+01 0.86790446598E+01 0.16549474182E+02
 0.30533530098E+02 0.53758332205E+02 0.88768338139E+02 0.13528152361E+03 0.19062788054E+03
 0.25894267868E+03 0.19366293873E+03 0.21748867570E+03 0.22135331673E+03 0.20326503636E+03
 0.17123267260E+03 0.13332470957E+03 0.95440520043E+02 0.62845393234E+02 0.38473559679E+02
 0.22224558124E+02 0.12285577618E+02 0.65738432406E+01 0.34350218928E+01 0.17643626540E+01
 0.89522952706E+00 0.45046223465E+00 0.22600967008E+00 0.11430455565E+00 0.60664184825E-01
 0.38046829611E-01 0.35205404713E-01 0.50433031604E-01 0.91784712727E-01 0.17965299984E+00
 0.35804888806E+00 0.71254231366E+00 0.14088227791E+01 0.27554308715E+01 0.53069152158E+01
 0.10005407165E+02 0.18317689400E+02 0.32225585574E+02 0.53758332205E+02 0.83775905111E+02
 0.12041186073E+03 0.15894404667E+03 0.11867360307E+03 0.13528145585E+03 0.14133420701E+03
 0.13528149222E+03 0.11867365657E+03 0.95440520043E+02 0.70470850710E+02 0.48037514037E+02
 0.30533544877E+02 0.18317674939E+02 0.10495967722E+02 0.58037995125E+01 0.31235311014E+01
 0.16464651333E+01 0.85477756967E+00 0.43880273044E+00 0.22375161387E+00 0.11434090024E+00
 0.60077706254E-01 0.35399587270E-01 0.28283882408E-01 0.35401022899E-01 0.60080860698E-01
 0.11434594815E+00 0.22375844233E+00 0.43881432978E+00 0.85479087766E+00 0.16464614569E+01
 0.31235492620E+01 0.58037794003E+01 0.10496017772E+02 0.18317689400E+02 0.30533530098E+02
 0.48037553976E+02 0.70470836275E+02 0.95440453124E+02 0.67502724405E+02 0.79072508144E+02
 0.84996234506E+02 0.83775910236E+02 0.75725088019E+02 0.62845393234E+02 0.48037514037E+02
 0.34020782188E+02 0.22516051115E+02 0.14065962097E+02 0.83789994725E+01 0.48034135543E+01
 0.26710408704E+01 0.14501652701E+01 0.77289810268E+00 0.40609880795E+00 0.21118633585E+00
 0.10955876815E+00 0.57636751310E-01 0.32716571386E-01 0.23258834569E-01 0.25092039869E-01
 0.38894614940E-01 0.71164985595E-01 0.13627980305E+00 0.26289834145E+00 0.50386077373E+00
 0.95509551455E+00 0.17819129721E+01 0.32578815381E+01 0.58037794002E+01 0.10005407165E+02
 0.16549474182E+02 0.26016410926E+02 0.38473523501E+02 0.53004842086E+02 0.35926108628E+02
 0.42967937684E+02 0.47369934886E+02 0.48037575064E+02 0.44797767847E+02 0.38473559679E+02
 0.30533544877E+02 0.22516051115E+02 0.15541142286E+02 0.10125537484E+02 0.62816060404E+01
 0.37411502459E+01 0.21549555405E+01 0.12080890997E+01 0.66275032206E+00 0.35741344355E+00
 0.19015279403E+00 0.10050120344E+00 0.53381210746E-01 0.29738747326E-01 0.19440601084E-01
 0.18122727258E-01 0.25137207916E-01 0.43565645539E-01 0.81277316865E-01 0.15383352693E+00
 0.29003434524E+00 0.54036180005E+00 0.99135491073E+00 0.17819129721E+01 0.31235492620E+01
 0.53069152158E+01 0.86790446598E+01 0.13553509686E+02 0.20037108297E+02 0.27802403890E+02
 0.18317801573E+02 0.22224616031E+02 0.25005569848E+02 0.26016408621E+02 0.25005588363E+02