=========================================
SLURM_JOB_ID = 31883053
SLURM_JOB_NODELIST = lnode26
SLURM_GPUS = 
SLURM_CPUS_ON_NODE = 8
SLURM_JOB_PARTITION = lenovo
SLURM_TASK_PID = 2748191
CUDA_VISIBLE_DEVICES = 
==========================================
 running on    8 total cores
 distrk:  each k-point on    8 cores,    1 groups
 distr:  one band on    8 cores,    1 groups
 using from now: INCAR     
 vasp.5.4.4.18Apr17-6-g9f103f2a35 (build Apr 28 2018 00:24:27) complex          
  
 POSCAR found type information on POSCAR  Mn Bi
 POSCAR found :  2 types and      12 ions
 scaLAPACK will be used

 ----------------------------------------------------------------------------- 
|                                                                             |
|           W    W    AA    RRRRR   N    N  II  N    N   GGGG   !!!           |
|           W    W   A  A   R    R  NN   N  II  NN   N  G    G  !!!           |
|           W    W  A    A  R    R  N N  N  II  N N  N  G       !!!           |
|           W WW W  AAAAAA  RRRRR   N  N N  II  N  N N  G  GGG   !            |
|           WW  WW  A    A  R   R   N   NN  II  N   NN  G    G                |
|           W    W  A    A  R    R  N    N  II  N    N   GGGG   !!!           |
|                                                                             |
|      For optimal performance we recommend to set                            |
|        NCORE= 4 - approx SQRT( number of cores)                             |
|      NCORE specifies how many cores store one orbital (NPAR=cpu/NCORE).     |
|      This setting can  greatly improve the performance of VASP for DFT.     |
|      The default,   NCORE=1            might be grossly inefficient         |
|      on modern multi-core architectures or massively parallel machines.     |
|      Do your own testing !!!!                                               |
|      Unfortunately you need to use the default for GW and RPA calculations. |
|      (for HF NCORE is supported but not extensively tested yet)             |
|                                                                             |
 ----------------------------------------------------------------------------- 

 LDA part: xc-table for Pade appr. of Perdew
 generate k-points for:    4    4    1
 POSCAR, INCAR and KPOINTS ok, starting setup
 FFT: planning ...
 WAVECAR not read
 entering main loop
       N       E                     dE             d eps       ncg     rms          rms(c)
DAV:   1     0.548966095951E+03    0.54897E+03   -0.23641E+04  1720   0.139E+03
DAV:   2     0.204828605176E+02   -0.52848E+03   -0.51701E+03  1720   0.396E+02
DAV:   3    -0.660509956964E+02   -0.86534E+02   -0.82974E+02  2885   0.150E+02
DAV:   4    -0.751007290079E+02   -0.90497E+01   -0.87869E+01  2944   0.598E+01
DAV:   5    -0.757474127629E+02   -0.64668E+00   -0.64063E+00  2896   0.168E+01    0.237E+01
DAV:   6    -0.845169266435E+02   -0.87695E+01   -0.25369E+02  3075   0.150E+02    0.566E+01
DAV:   7    -0.692465075839E+02    0.15270E+02   -0.11895E+02  2944   0.813E+01    0.132E+01
DAV:   8    -0.698659462188E+02   -0.61944E+00   -0.20449E+01  3256   0.531E+01    0.114E+01
DAV:   9    -0.698263961993E+02    0.39550E-01   -0.10040E+01  3192   0.350E+01    0.584E+00
DAV:  10    -0.697402041574E+02    0.86192E-01   -0.28494E+00  3081   0.228E+01    0.462E+00
DAV:  11    -0.696246326379E+02    0.11557E+00   -0.98147E-01  2848   0.125E+01    0.207E+00
DAV:  12    -0.696449015177E+02   -0.20269E-01   -0.33325E-01  3000   0.623E+00    0.195E+00
DAV:  13    -0.696532650794E+02   -0.83636E-02   -0.16761E-01  3096   0.575E+00    0.170E+00
DAV:  14    -0.696569603612E+02   -0.36953E-02   -0.85584E-02  2981   0.379E+00    0.117E+00
DAV:  15    -0.696557249214E+02    0.12354E-02   -0.30045E-02  2903   0.260E+00    0.652E-01
DAV:  16    -0.696573899127E+02   -0.16650E-02   -0.24496E-02  2957   0.200E+00    0.335E-01
DAV:  17    -0.696584108933E+02   -0.10210E-02   -0.69168E-03  2946   0.918E-01    0.177E-01
DAV:  18    -0.696592317202E+02   -0.82083E-03   -0.14880E-03  2832   0.264E-01    0.154E-01
DAV:  19    -0.696601425966E+02   -0.91088E-03   -0.11871E-03  2800   0.353E-01    0.158E-01
DAV:  20    -0.696603496326E+02   -0.20704E-03   -0.41529E-04  2976   0.304E-01    0.127E-01
DAV:  21    -0.696606106519E+02   -0.26102E-03   -0.31654E-04  2904   0.229E-01    0.907E-02
DAV:  22    -0.696607666586E+02   -0.15601E-03   -0.34371E-04  3040   0.225E-01    0.524E-02
DAV:  23    -0.696608379260E+02   -0.71267E-04   -0.15017E-04  2952   0.128E-01    0.244E-02
DAV:  24    -0.696608493450E+02   -0.11419E-04   -0.40636E-05  2952   0.779E-02    0.160E-02
DAV:  25    -0.696608508224E+02   -0.14774E-05   -0.14409E-05  2680   0.458E-02    0.104E-02
DAV:  26    -0.696608512327E+02   -0.41030E-06   -0.59420E-06  2104   0.329E-02
   1 F= -.69660851E+02 E0= -.69659515E+02  d E =-.400962E-02  mag=    -0.0002
