unknown system                          
   1.00000000000000     
     0.000000    2.743592    0.000000
    -4.416989    1.371796   -1.676555
    -2.740434    0.000000    2.740434
   Fe
     4
Direct
  0.499657  0.000686  0.499657
  0.750343  0.499314  0.250343
  0.250343  0.499314  0.750343
  0.999657  0.000686  0.999657
 
   40   80   60
 0.29856768707E+07 0.39347442797E+05 0.97348916654E+04 0.15759462434E+04 0.38365593930E+03
 0.20089940656E+03 0.12221636557E+03 0.69183574913E+02 0.36600604772E+02 0.18543384456E+02
 0.91528442899E+01 0.44489573757E+01 0.21432741710E+01 0.10279740239E+01 0.49166332581E+00
 0.23530900017E+00 0.11270966305E+00 0.54531476881E-01 0.27180961705E-01 0.15317752641E-01
 0.11927701009E-01 0.15317778459E-01 0.27181035196E-01 0.54531604222E-01 0.11270973681E+00
 0.23530907314E+00 0.49166335647E+00 0.10279740283E+01 0.21432743611E+01 0.44489571295E+01
 0.91528447807E+01 0.18543384355E+02 0.36600602798E+02 0.69183575838E+02 0.12221636477E+03
 0.20089940959E+03 0.38365594190E+03 0.15759462430E+04 0.97348916667E+04 0.39347442800E+05
 0.47951166852E+05 0.21472063636E+05 0.48039955024E+04 0.86969563322E+03 0.29368589844E+03
 0.17251960130E+03 0.10371155572E+03 0.57625533810E+02 0.30142069705E+02 0.15181083650E+02
 0.74727366383E+01 0.36290395679E+01 0.17485602228E+01 0.83908449733E+00 0.40189778579E+00
 0.19250535442E+00 0.92497926625E-01 0.44955576794E-01 0.22853846189E-01 0.13634388903E-01
 0.11984984934E-01 0.17108754323E-01 0.31708048150E-01 0.64366244797E-01 0.13327951287E+00
 0.27823110444E+00 0.58061194578E+00 0.12116834025E+01 0.25207772014E+01 0.52143415021E+01
 0.10674107556E+02 0.21468960990E+02 0.41926092920E+02 0.78021255976E+02 0.13502138824E+03
 0.21985331045E+03 0.45244554520E+03 0.19939765364E+04 0.10910508864E+05 0.34547334780E+05
 0.14591227475E+05 0.62168393743E+04 0.15390081420E+04 0.43121739233E+03 0.22170227095E+03
 0.13898493450E+03 0.82059936806E+02 0.44945883500E+02 0.23372678546E+02 0.11762762989E+02
 0.58011838030E+01 0.28261110036E+01 0.13668435464E+01 0.65825465207E+00 0.31663885674E+00
 0.15217615809E+00 0.73557691966E-01 0.36052910012E-01 0.18863035883E-01 0.12116611480E-01
 0.12118803931E-01 0.18861241797E-01 0.36055212679E-01 0.73555415732E-01 0.15217808722E+00
 0.31663728558E+00 0.65825733153E+00 0.13668399612E+01 0.28261147356E+01 0.58011799714E+01
 0.11762764919E+02 0.23372677124E+02 0.44945889820E+02 0.82059936134E+02 0.13898492295E+03
 0.22170229318E+03 0.43121738470E+03 0.15390081338E+04 0.62168393808E+04 0.14591227485E+05
 0.29841057958E+04 0.13508096183E+04 0.50336194019E+03 0.25778287093E+03 0.16641227599E+03
 0.10464797949E+03 0.60687954767E+02 0.32978359399E+02 0.17149343311E+02 0.86666155561E+01
 0.43001973984E+01 0.21087958029E+01 0.10270306621E+01 0.49777096951E+00 0.24091532270E+00
 0.11656609187E+00 0.56731023047E-01 0.28241941544E-01 0.15311598272E-01 0.10839453774E-01
 0.12240345840E-01 0.20444388410E-01 0.39789112134E-01 0.81266546240E-01 0.16747246758E+00
 0.34642325939E+00 0.71528648741E+00 0.14724930309E+01 0.30151107413E+01 0.61158899816E+01
 0.12226155540E+02 0.23886160078E+02 0.45037863790E+02 0.80457682620E+02 0.13327634337E+03
 0.20562370412E+03 0.34261055346E+03 0.81263029608E+03 0.21294939852E+04 0.35676875078E+04
 0.65003832623E+03 0.40332869824E+03 0.25678554720E+03 0.17769066038E+03 0.11908355945E+03
 0.73551565013E+02 0.42182518435E+02 0.22905625199E+02 0.11976577909E+02 0.61035368419E+01
 0.30575867134E+01 0.15137992032E+01 0.74409459923E+00 0.36402919873E+00 0.17749256305E+00
 0.86717832871E-01 0.42539671318E-01 0.21662079104E-01 0.12285943562E-01 0.97618492844E-02
 0.12286242919E-01 0.21662718483E-01 0.42539423223E-01 0.86717615472E-01 0.17749233125E+00
 0.36403099647E+00 0.74409298050E+00 0.15137998292E+01 0.30575861154E+01 0.61035358430E+01
 0.11976575672E+02 0.22905635381E+02 0.42182521656E+02 0.73551552313E+02 0.11908357132E+03
 0.17769066708E+03 0.25678553215E+03 0.40332869771E+03 0.65003834104E+03 0.80190107406E+03
 0.27182736578E+03 0.21960484397E+03 0.16848638135E+03 0.12084111115E+03 0.79668250112E+02
 0.48543628457E+02 0.27776044349E+02 0.15168896305E+02 0.80105227918E+01 0.41306419864E+01
 0.20943220088E+01 0.10497648270E+01 0.52164439080E+00 0.25802310135E+00 0.12709398554E+00
 0.62734113270E-01 0.31185408211E-01 0.16290684263E-01 0.98580331561E-02 0.88099937301E-02
 0.12244338591E-01 0.22353763836E-01 0.44084119035E-01 0.89307900921E-01 0.18106503966E+00
 0.36713659525E+00 0.74068497684E+00 0.14844110158E+01 0.29465676633E+01 0.57663127424E+01
 0.11061641854E+02 0.20627517450E+02 0.36970041580E+02 0.62746846550E+02 0.99164915139E+02
 0.14412833864E+03 0.19364150203E+03 0.24615323382E+03 0.29318507001E+03 0.30559761972E+03
 0.17021809988E+03 0.14239043111E+03 0.10934555702E+03 0.77022053865E+02 0.50061236857E+02
 0.30393501581E+02 0.17481064917E+02 0.96478832317E+01 0.51628215902E+01 0.27002148244E+01
 0.13888120760E+01 0.70557268530E+00 0.35534824997E+00 0.17773070266E+00 0.88695241913E-01
 0.44242802529E-01 0.22448876722E-01 0.12089468908E-01 0.79949011393E-02 0.79920383682E-02
 0.12093217747E-01 0.22446128906E-01 0.44245610694E-01 0.88691508372E-01 0.17773504273E+00
 0.35534490493E+00 0.70557609782E+00 0.13888072541E+01 0.27002189894E+01 0.51628137966E+01
 0.96478934097E+01 0.17481074424E+02 0.30393488645E+02 0.50061253501E+02 0.77022045803E+02
 0.10934555287E+03 0.14239042641E+03 0.17021811178E+03 0.18665398686E+03 0.18665398122E+03
 0.10752572648E+03 0.88263359343E+02 0.66497517467E+02 0.46226252134E+02 0.29925548165E+02
 0.18249439125E+02 0.10605464743E+02 0.59343137899E+01 0.32248932826E+01 0.17135372839E+01
 0.89510150521E+00 0.46153232620E+00 0.23567395913E+00 0.11953147232E+00 0.60363410741E-01
 0.30604241167E-01 0.15825278979E-01 0.89735471586E-02 0.64900123220E-02 0.73141876595E-02
 0.11670392594E-01 0.21926629293E-01 0.42898780146E-01 0.85007273186E-01 0.16789514631E+00
 0.33023200101E+00 0.64358164809E+00 0.12407197222E+01 0.23566603694E+01 0.43885219823E+01
 0.79665236263E+01 0.13986293770E+02 0.23526972593E+02 0.37500019960E+02 0.55975624483E+02
 0.77419070595E+02 0.98486340860E+02 0.11485112768E+03 0.12268028150E+03 0.12001270075E+03
 0.63712348157E+02 0.51416605662E+02 0.38302602187E+02 0.26525738257E+02 0.17233554272E+02
 0.10609433619E+02 0.62489324872E+01 0.35516196003E+01 0.19622247916E+01 0.10603106710E+01
 0.56284331857E+00 0.29487459122E+00 0.15273631403E+00 0.78641184265E-01 0.40276112397E-01
 0.20812956786E-01 0.11050270624E-01 0.66707912800E-02 0.53439331182E-02 0.66714260471E-02
 0.11050723188E-01 0.20813505889E-01 0.40275001009E-01 0.78641896017E-01 0.15273583127E+00
 0.29487647504E+00 0.56284048682E+00 0.10603120269E+01 0.19622206261E+01 0.35516241540E+01
 0.62489436894E+01 0.10609423227E+02 0.17233578924E+02 0.26525729420E+02 0.38302579300E+02
 0.51416612153E+02 0.63712360702E+02 0.72557396225E+02 0.75784453633E+02 0.72557390941E+02
 0.35850749193E+02 0.28636807485E+02 0.21247222911E+02 0.14749024126E+02 0.96586142003E+01
 0.60185690623E+01 0.35980528190E+01 0.20789513374E+01 0.11683518898E+01 0.64212713229E+00
 0.34670047295E+00 0.18444451252E+00 0.97121240278E-01 0.50723800657E-01 0.26489437283E-01
 0.13964601349E-01 0.77707221023E-02 0.50209153082E-02 0.45491337418E-02 0.60561098475E-02
 0.10311380445E-01 0.19171578739E-01 0.36648746188E-01 0.70227848535E-01 0.13399759795E+00
 0.25328021352E+00 0.47275253159E+00 0.86836881187E+00 0.15633084415E+01 0.27455314373E+01
 0.46754016713E+01 0.76678076197E+01 0.12016198267E+02 0.17841436450E+02 0.24885076693E+02
 0.32350880095E+02 0.38949112163E+02 0.43238717030E+02 0.44156710692E+02 0.41464207458E+02
 0.19496069813E+02 0.15488591562E+02 0.11495519963E+02 0.80251216660E+01 0.53080857938E+01
 0.33517663649E+01 0.20348353533E+01 0.11953516794E+01 0.68342382633E+00 0.38208315542E+00
 0.20968858396E+00 0.11346439497E+00 0.60711350506E-01 0.32316491447E-01 0.17233449021E-01
 0.94066848197E-02 0.55305325476E-02 0.39411727752E-02 0.39470192554E-02 0.55256101169E-02
 0.94130949359E-02 0.17227503104E-01 0.32321976379E-01 0.60704518654E-01 0.11347288548E+00
 0.20968011125E+00 0.38209057973E+00 0.68341347057E+00 0.11953604062E+01 0.20348455160E+01
 0.33517451026E+01 0.53081303325E+01 0.80251153123E+01 0.11495487718E+02 0.15488580739E+02
 0.19496096751E+02 0.22801633464E+02 0.24682753598E+02 0.24682752785E+02 0.22801623730E+02
 0.10375329471E+02 0.82220110691E+01 0.61186315819E+01 0.43020013735E+01 0.28766095400E+01
 0.18411025338E+01 0.11348343163E+01 0.67765588567E+00 0.39398435671E+00 0.22394584901E+00
 0.12505763533E+00 0.68832611138E-01 0.37568773330E-01 0.20454348946E-01 0.11301542477E-01
 0.64975066364E-02 0.41743747622E-02 0.33116575964E-02 0.35959585374E-02 0.51019859968E-02
 0.85038298585E-02 0.15154146377E-01 0.27713429339E-01 0.50884466181E-01 0.92922675025E-01
 0.16767857760E+00 0.29780192361E+00 0.51826335801E+00 0.88013852914E+00 0.14516831927E+01
 0.23131427663E+01 0.35384417094E+01 0.51651722819E+01 0.71459297743E+01 0.93120493622E+01
 0.11364523007E+02 0.12930407984E+02 0.13673407557E+02 0.13420583157E+02 0.12231984423E+02
 0.54470861662E+01 0.43132872729E+01 0.32223397558E+01 0.22833472110E+01 0.15432289664E+01
 0.10010343785E+01 0.62613747842E+00 0.37989077347E+00 0.22445592630E+00 0.12982360899E+00
 0.73791466593E-01 0.41487412916E-01 0.23226546091E-01 0.13141941428E-01 0.76765756762E-02
 0.48445997064E-02 0.34926420222E-02 0.31081982217E-02 0.34932109504E-02 0.48454296016E-02
 0.76773360627E-02 0.13141187635E-01 0.23225567121E-01 0.41488083254E-01 0.73792974842E-01
 0.12981946650E+00 0.22446121179E+00 0.37987725714E+00 0.62617609690E+00 0.10009831320E+01
 0.15432811946E+01 0.22833686153E+01 0.32222921971E+01 0.43132670092E+01 0.54471003911E+01
 0.64595072066E+01 0.71657516993E+01 0.74200521501E+01 0.71657447737E+01 0.64594797180E+01
 0.28362274634E+01 0.22465464567E+01 0.16855040893E+01 0.12036675932E+01 0.82229462027E+00
 0.54005273134E+00 0.34278233954E+00 0.21111474825E+00 0.12687872465E+00 0.74733012471E-01
 0.43451936416E-01 0.25150929636E-01 0.14724257587E-01 0.89189345310E-02 0.57922545551E-02
 0.41813604915E-02 0.34661027330E-02 0.33336920184E-02 0.37383394207E-02 0.48429937676E-02
 0.71095635596E-02 0.11388103158E-01 0.19196170058E-01 0.33046620124E-01 0.57055513368E-01
 0.97579651041E-01 0.16412936773E+00 0.26991913457E+00 0.43198196355E+00 0.66950293693E+00
 0.10001839022E+01 0.14327539528E+01 0.19585237168E+01 0.25420484880E+01 0.31186507631E+01
 0.36020091605E+01 0.39064290393E+01 0.39706295014E+01 0.37813569709E+01 0.33775491021E+01
 0.14694466443E+01 0.11649896032E+01 0.87810817172E+00 0.63180677810E+00 0.43608960900E+00
 0.28995772569E+00 0.18654748596E+00 0.11680791514E+00 0.71509386784E-01 0.43168332009E-01
 0.25963401925E-01 0.15857748132E-01 0.10098016211E-01 0.69331065027E-02 0.52667036549E-02
 0.44537640055E-02 0.41266861947E-02 0.41273183534E-02 0.44542838174E-02 0.52683957587E-02
 0.69322254129E-02 0.10097642425E-01 0.15855941706E-01 0.25967904112E-01 0.43161289779E-01
 0.71518141485E-01 0.11679219728E+00 0.18658112675E+00 0.28992915629E+00 0.43609171971E+00
 0.63187809366E+00 0.87805943637E+00 0.11649540611E+01 0.14694488191E+01 0.17556759552E+01
 0.19801885890E+01 0.21042963104E+01 0.21042831432E+01 0.19801699384E+01 0.17556483499E+01
 0.75949480274E+00 0.60278557195E+00 0.45645995583E+00 0.33099289492E+00 0.23062742553E+00
 0.15523939292E+00 0.10146013008E+00 0.64722453472E-01 0.40719912362E-01 0.25587500010E-01
 0.16444247121E-01 0.11136681478E-01 0.82242122789E-02 0.67316196177E-02 0.60363871767E-02
 0.57515662401E-02 0.56651579290E-02 0.56913806431E-02 0.58576767459E-02 0.63127373556E-02
 0.73462656203E-02 0.94535092453E-02 0.13412813717E-01 0.20420454811E-01 0.32244649623E-01
 0.51393712870E-01 0.81232963502E-01 0.12591496297E+00 0.19000094409E+00 0.27755000895E+00
 0.39069316904E+00 0.52757267759E+00 0.68079764237E+00 0.83647773215E+00 0.97562664781E+00
 0.10771807419E+01 0.11242129051E+01 0.11083009613E+01 0.10323688289E+01 0.90944291994E+00
 0.39212858480E+00 0.31179959704E+00 0.23712626742E+00 0.17316469204E+00 0.12203729544E+00
 0.83330264902E-01 0.55530661065E-01 0.36558492782E-01 0.24147212044E-01 0.16475427989E-01
 0.12007258256E-01 0.96519895128E-02 0.85863695216E-02 0.82521292539E-02 0.82613893026E-02
 0.83636330491E-02 0.84136680355E-02 0.83642672466E-02 0.82632495305E-02 0.82519284737E-02
 0.85859678769E-02 0.96496948890E-02 0.12010866181E-01 0.16470846087E-01 0.24151859798E-01
 0.36550140617E-01 0.55550519028E-01 0.83323880231E-01 0.12201907785E+00 0.17322284334E+00
 0.23712590050E+00 0.31174328501E+00 0.39211712240E+00 0.47031254065E+00 0.53660938346E+00
 0.58127755445E+00 0.59705488211E+00 0.58125372844E+00 0.53658731612E+00 0.47028997820E+00
 0.20241651731E+00 0.16127370096E+00 0.12338722211E+00 0.90981034563E-01 0.64948860719E-01
 0.45341056933E-01 0.31355990448E-01 0.21910702795E-01 0.16027460301E-01 0.12706572689E-01
 0.11194262002E-01 0.10840836267E-01 0.11169328005E-01 0.11789968001E-01 0.12410262031E-01
 0.12822393028E-01 0.12909945026E-01 0.12650708755E-01 0.12113644215E-01 0.11463937509E-01
 0.10947771066E-01 0.10905208764E-01 0.11768287646E-01 0.14098066734E-01 0.18592326470E-01
 0.26122556688E-01 0.37701367823E-01 0.54395482076E-01 0.77131689502E-01 0.10637583867E+00
 0.14177150641E+00 0.18168440699E+00 0.22310337730E+00 0.26182742975E+00 0.29294841915E+00
 0.31196668854E+00 0.31594158809E+00 0.30422670824E+00 0.27866705806E+00 0.24312358574E+00
 0.10477824501E+00 0.83776320958E-01 0.64546313017E-01 0.48242438796E-01 0.35371008535E-01
 0.25790663123E-01 0.19220326232E-01 0.15230253927E-01 0.13240964211E-01 0.12808629912E-01
 0.13456973625E-01 0.14795689498E-01 0.16430281280E-01 0.18018589704E-01 0.19263812254E-01
 0.19946442639E-01 0.19947517712E-01 0.19265039849E-01 0.18019802337E-01 0.16429296152E-01
 0.14794116545E-01 0.13458561643E-01 0.12806532473E-01 0.13242952839E-01 0.15224992631E-01
 0.19235560085E-01 0.25788729654E-01 0.35358813122E-01 0.48275176398E-01 0.64564214803E-01
 0.83743417212E-01 0.10474282893E+00 0.12581012674E+00 0.14465505060E+00 0.15892594740E+00
 0.16664050744E+00 0.16662827102E+00 0.15890135555E+00 0.14462923629E+00 0.12579858099E+00
 0.54440549531E-01 0.43861769741E-01 0.34382747599E-01 0.26511967321E-01 0.20481425839E-01
 0.16431481033E-01 0.14214058781E-01 0.13598316673E-01 0.14402305301E-01 0.16309780863E-01
 0.19023330111E-01 0.22153737833E-01 0.25304984368E-01 0.28052304969E-01 0.30015405485E-01
 0.30910682139E-01 0.30607204667E-01 0.29151466647E-01 0.26753661805E-01 0.23755396275E-01
 0.20560267085E-01 0.17589841666E-01 0.15234518671E-01 0.13845287785E-01 0.13710394069E-01
 0.15099011781E-01 0.18223885926E-01 0.23244316515E-01 0.30200629447E-01 0.38946788581E-01
 0.49093097630E-01 0.59910051677E-01 0.70407013023E-01 0.79456480245E-01 0.85901689410E-01
 0.88837015262E-01 0.87858824566E-01 0.83097857397E-01 0.75213053815E-01 0.65265492737E-01
 0.28745970970E-01 0.23596493884E-01 0.19161758246E-01 0.15806053032E-01 0.13762039433E-01
 0.13051721998E-01 0.13742011265E-01 0.15835108604E-01 0.19173090578E-01 0.23582770575E-01
 0.28718033697E-01 0.34139305421E-01 0.39270805060E-01 0.43512213155E-01 0.46314914105E-01
 0.47296403459E-01 0.46316750615E-01 0.43513104995E-01 0.39271177151E-01 0.34137060749E-01
 0.28719359927E-01 0.23580608223E-01 0.19175383452E-01 0.15829653605E-01 0.13756176959E-01
 0.13050374546E-01 0.13755050442E-01 0.15829973771E-01 0.19174087276E-01 0.23582286940E-01
 0.28717418712E-01 0.34138693496E-01 0.39283429000E-01 0.43517794366E-01 0.46305846362E-01
 0.47283760462E-01 0.46293548573E-01 0.43486933892E-01 0.39262559052E-01 0.34149095712E-01
 0.15681894746E-01 0.13511404809E-01 0.11997622849E-01 0.11370897900E-01 0.11830736527E-01
 0.13642825205E-01 0.16925820838E-01 0.21723028879E-01 0.28035141896E-01 0.35611421388E-01
 0.44019183153E-01 0.52560961517E-01 0.60386408138E-01 0.66573549479E-01 0.70315696212E-01
 0.71090844025E-01 0.68789686142E-01 0.63739219962E-01 0.56621864116E-01 0.48324217260E-01
 0.39750585220E-01 0.31685887142E-01 0.24703176486E-01 0.19127390291E-01 0.15087193672E-01
 0.12565756826E-01 0.11438072076E-01 0.11541264463E-01 0.12658376985E-01 0.14550500216E-01
 0.16943580406E-01 0.19508787570E-01 0.21905164171E-01 0.23833314651E-01 0.25012686033E-01
 0.25256022761E-01 0.24547159295E-01 0.22978453976E-01 0.20759321837E-01 0.18213622482E-01
 0.94071485004E-02 0.89818783606E-02 0.92631988598E-02 0.10565156975E-01 0.13219369167E-01
 0.17466259942E-01 0.23604833287E-01 0.31831276049E-01 0.42074411381E-01 0.54027286359E-01
 0.66974880634E-01 0.79856051950E-01 0.91316555410E-01 0.99957865241E-01 0.10461258300E+00
 0.10461330801E+00 0.99959744144E-01 0.91316584378E-01 0.79855445734E-01 0.66974423609E-01
 0.54025895211E-01 0.42076031136E-01 0.31826894703E-01 0.23616697053E-01 0.17466611854E-01
 0.13214093575E-01 0.10586509284E-01 0.92721597549E-02 0.89701536915E-02 0.93893342705E-02
 0.10253134710E-01 0.11321230064E-01 0.12367950021E-01 0.13175106830E-01 0.13608294720E-01
 0.13608250743E-01 0.13155545189E-01 0.12338773689E-01 0.11316865211E-01 0.10264256741E-01
 0.66909348532E-02 0.75296986835E-02 0.93337158002E-02 0.12468467955E-01 0.17358541375E-01
 0.24538699064E-01 0.34412088087E-01 0.47213375851E-01 0.62916881936E-01 0.80959553477E-01
 0.10022111830E+00 0.11898717284E+00 0.13519341915E+00 0.14675759483E+00 0.15204054701E+00
 0.15025617471E+00 0.14167234822E+00 0.12754592382E+00 0.10978952964E+00 0.90535757895E-01
 0.71699973011E-01 0.54727246644E-01 0.40435003813E-01 0.29110938131E-01 0.20639275533E-01
 0.14652182539E-01 0.10692325220E-01 0.82913017976E-02 0.70273667492E-02 0.65447369401E-02
 0.65622608802E-02 0.68337876856E-02 0.71759360572E-02 0.74705305213E-02 0.76219698833E-02
 0.75728801094E-02 0.73572082507E-02 0.70268397519E-02 0.66813709902E-02 0.64989515155E-02
 0.61619621533E-02 0.81042900668E-02 0.11378348050E-01 0.16560882622E-01 0.24329817499E-01
 0.35333458895E-01 0.50215640327E-01 0.69359815018E-01 0.92575377726E-01 0.11896872893E+00
 0.14672301481E+00 0.17322123561E+00 0.19533672785E+00 0.21007384822E+00 0.21525278096E+00
 0.21007479465E+00 0.19533784903E+00 0.17322063575E+00 0.14672364033E+00 0.11896542362E+00
 0.92577929547E-01 0.69355400139E-01 0.50226572125E-01 0.35333870372E-01 0.24327052506E-01
 0.16578821514E-01 0.11387549755E-01 0.80935570756E-02 0.61456527261E-02 0.51035164382E-02
 0.46278948973E-02 0.44864382175E-02 0.45051629819E-02 0.45526379703E-02 0.45668827783E-02
 0.45443178922E-02 0.44856815039E-02 0.44695685952E-02 0.46255728828E-02 0.51098688429E-02
 0.69650449995E-02 0.10135742851E-01 0.15231219347E-01 0.23033311259E-01 0.34469740623E-01
 0.50598346912E-01 0.72276956562E-01 0.99926021430E-01 0.13322594886E+00 0.17066856914E+00
 0.20945324065E+00 0.24560143499E+00 0.27460690024E+00 0.29232525639E+00 0.29601723230E+00
 0.28509112687E+00 0.26127676265E+00 0.22813453273E+00 0.19012179908E+00 0.15157377568E+00
 0.11593500721E+00 0.85349168182E-01 0.60696339325E-01 0.41890856128E-01 0.28222387268E-01
 0.18724436913E-01 0.12397680667E-01 0.83674830688E-02 0.59155101285E-02 0.45104915301E-02
 0.37676812931E-02 0.34107831138E-02 0.32591106404E-02 0.32162009594E-02 0.32188445237E-02
 0.32392650320E-02 0.33312272187E-02 0.35690894592E-02 0.40799684313E-02 0.51027093716E-02
 0.89221684097E-02 0.13537146171E-01 0.20843035778E-01 0.31977123389E-01 0.48296186050E-01
 0.71144649104E-01 0.10170775161E+00 0.14050729418E+00 0.18681772040E+00 0.23827192736E+00
 0.29063259732E+00 0.33817213491E+00 0.37456521344E+00 0.39435071786E+00 0.39435089789E+00
 0.37456562352E+00 0.33817278065E+00 0.29063340578E+00 0.23826906087E+00 0.18681812482E+00
 0.14050508132E+00 0.10171667776E+00 0.71145744799E-01 0.48294671158E-01 0.31993651313E-01
 0.20850102300E-01 0.13530277331E-01 0.89061156068E-02 0.61108162242E-02 0.44990218379E-02
 0.36211764082E-02 0.31818518741E-02 0.29879392478E-02 0.29109186601E-02 0.29022743522E-02
 0.29781624534E-02 0.31719044391E-02 0.36062288638E-02 0.44938435385E-02 0.61182237919E-02
 0.11824502427E-01 0.18244521988E-01 0.28392346048E-01 0.43796580118E-01 0.66246528319E-01
 0.97646979540E-01 0.13946424101E+00 0.19215466535E+00 0.25446401060E+00 0.32276146746E+00
 0.39092056823E+00 0.45088443321E+00 0.49424819752E+00 0.51421468407E+00 0.50746263416E+00
 0.47512815389E+00 0.42246412537E+00 0.35733301059E+00 0.28819103111E+00 0.22227685460E+00
 0.16447489603E+00 0.11718707149E+00 0.80722923300E-01 0.54010332370E-01 0.35317809045E-01
 0.22764519560E-01 0.14662557317E-01 0.96378821327E-02 0.66488114445E-02 0.49599675966E-02
 0.40676810180E-02 0.36287832313E-02 0.34341135496E-02 0.33756242628E-02 0.34032796431E-02
 0.35156635569E-02 0.38155462974E-02 0.44552568922E-02 0.56828224367E-02 0.79321729416E-02
 0.15780093633E-01 0.24358220184E-01 0.37920226598E-01 0.58520032951E-01 0.88549071245E-01
 0.13033559696E+00 0.18566855139E+00 0.25486149199E+00 0.33576807347E+00 0.42306763004E+00
 0.50816849244E+00 0.58041506900E+00 0.62913670149E+00 0.64636856832E+00 0.62913637549E+00
 0.58041525875E+00 0.50817067552E+00 0.42306505530E+00 0.33576751078E+00 0.25485887657E+00
 0.18567815281E+00 0.13033567586E+00 0.88549189104E-01 0.58535398131E-01 0.37925985896E-01
 0.24351746928E-01 0.15768641473E-01 0.10566668946E-01 0.75781449611E-02 0.59652120850E-02
 0.51631746064E-02 0.48140528177E-02 0.46912225089E-02 0.46592695685E-02 0.46805883227E-02
 0.48110156570E-02 0.51551168286E-02 0.59477760017E-02 0.75746664061E-02 0.10576518207E-01
 0.20705356738E-01 0.31825042240E-01 0.49447137549E-01 0.76178983424E-01 0.11496454197E+00
 0.16873760012E+00 0.23943967589E+00 0.32698906394E+00 0.42803496990E+00 0.53504875829E+00
 0.63674452346E+00 0.71961001374E+00 0.77067682679E+00 0.78134747625E+00 0.74981929770E+00
 0.68139388584E+00 0.58737819845E+00 0.48142335510E+00 0.37620143741E+00 0.28122019637E+00
 0.20191075314E+00 0.13982364636E+00 0.93863365140E-01 0.61483357926E-01 0.39672943723E-01
 0.25604374065E-01 0.16927916329E-01 0.11860569993E-01 0.90856690256E-02 0.77107150313E-02
 0.71363666642E-02 0.69602647426E-02 0.69319362594E-02 0.69363008980E-02 0.69451429938E-02
 0.70196216211E-02 0.73613117728E-02 0.82838800897E-02 0.10251849453E-01 0.14027443587E-01
 0.26680110914E-01 0.40588563818E-01 0.62683402660E-01 0.96169248208E-01 0.14463735280E+00
 0.21135425320E+00 0.29832324821E+00 0.40482825319E+00 0.52579072950E+00 0.65135736631E+00
 0.76724935777E+00 0.85692129075E+00 0.90609296679E+00 0.90609224480E+00 0.85692112163E+00
 0.76725104355E+00 0.65135670136E+00 0.52578920229E+00 0.40482523313E+00 0.29833235439E+00
 0.21135509107E+00 0.14463759700E+00 0.96183913351E-01 0.62688922811E-01 0.40581257537E-01
 0.26670621633E-01 0.18386370370E-01 0.13793297013E-01 0.11525087381E-01 0.10629688949E-01
 0.10445768526E-01 0.10542911007E-01 0.10657562227E-01 0.10655283368E-01 0.10537602047E-01
 0.10443534631E-01 0.10619692122E-01 0.11508483364E-01 0.13794377679E-01 0.18392786777E-01
 0.33528361965E-01 0.50337036702E-01 0.77140302590E-01 0.11766411948E+00 0.17595733636E+00
 0.25560058054E+00 0.35840362460E+00 0.48247678922E+00 0.62101599335E+00 0.76160953327E+00
 0.88680194191E+00 0.97834360225E+00 0.10206947731E+01 0.10063885687E+01 0.93788362328E+00
 0.82725686801E+00 0.69206215127E+00 0.55059081866E+00 0.41807808334E+00 0.30411186376E+00
 0.21293568093E+00 0.14433540534E+00 0.95421428210E-01 0.62272414997E-01 0.40901423506E-01
 0.27893644931E-01 0.20556004720E-01 0.16906580479E-01 0.15503131251E-01 0.15351564921E-01
 0.15746202556E-01 0.16213918154E-01 0.16460457010E-01 0.16376162136E-01 0.15997445687E-01
 0.15518633763E-01 0.15330886276E-01 0.16009259565E-01 0.18370475652E-01 0.23650273959E-01
 0.41143626981E-01 0.60686728390E-01 0.91947826961E-01 0.13913364161E+00 0.20659207745E+00
 0.29790303249E+00 0.41425328118E+00 0.55251823295E+00 0.70397994727E+00 0.85345961943E+00
 0.98173914644E+00 0.10686554425E+01 0.10994672175E+01 0.10686549252E+01 0.98174076962E+00
 0.85345858783E+00 0.70398000775E+00 0.55251384427E+00 0.41426201787E+00 0.29790407458E+00
 0.20659336168E+00 0.13914701013E+00 0.91952716049E-01 0.60680829721E-01 0.41132180892E-01
 0.29856197636E-01 0.24127683979E-01 0.21944463239E-01 0.21875865987E-01 0.22862129811E-01
 0.24107375234E-01 0.25077266481E-01 0.25436826579E-01 0.25079119708E-01 0.24102919158E-01
 0.22857129165E-01 0.21866359752E-01 0.21932358575E-01 0.24128322776E-01 0.29858624187E-01
 0.49169876999E-01 0.70974707097E-01 0.10607983793E+00 0.15889781419E+00 0.23377428400E+00
 0.33406337131E+00 0.45999489247E+00 0.60702803991E+00 0.76461358266E+00 0.91550092226E+00
 0.10392319976E+01 0.11156838907E+01 0.11317212166E+01 0.10843707318E+01 0.98215356096E+00
 0.84208287583E+00 0.68544815925E+00 0.53137777403E+00 0.39397769776E+00 0.28062884637E+00
 0.19331789739E+00 0.12998286159E+00 0.86599314427E-01 0.58671002424E-01 0.42069180024E-01
 0.33405157839E-01 0.30051353943E-01 0.30084633030E-01 0.31980498557E-01 0.34563586321E-01
 0.36939236458E-01 0.38471246847E-01 0.38793697006E-01 0.37837268491E-01 0.35828902284E-01
 0.33253857109E-01 0.30888546154E-01 0.29758662722E-01 0.31197800827E-01 0.36926911708E-01
 0.57327484920E-01 0.80539886726E-01 0.11829849560E+00 0.17494901043E+00 0.25462813933E+00
 0.35998663008E+00 0.49008782086E+00 0.63910263243E+00 0.79481296132E+00 0.93910330354E+00
 0.10512616022E+01 0.11127162575E+01 0.11127165965E+01 0.10512629793E+01 0.93910262742E+00
 0.79481203359E+00 0.63910030182E+00 0.49009376704E+00 0.35998924251E+00 0.25462915323E+00
 0.17496267143E+00 0.11830146777E+00 0.80535371750E-01 0.57316420502E-01 0.44752457230E-01
 0.39719106171E-01 0.39745883796E-01 0.42856915268E-01 0.47471112749E-01 0.52267199752E-01
 0.56146662672E-01 0.58306377063E-01 0.58308468580E-01 0.56150444955E-01 0.52259197984E-01
 0.47466156587E-01 0.42850448715E-01 0.39736398474E-01 0.39715044755E-01 0.44756451778E-01
 0.65096025069E-01 0.88619875631E-01 0.12748436525E+00 0.18568408130E+00 0.26676746141E+00
 0.37247385033E+00 0.50068736205E+00 0.64438146719E+00 0.79047164044E+00 0.92082793570E+00
 0.10161692773E+01 0.10601704676E+01 0.10452686227E+01 0.97404400393E+00 0.85881032704E+00
 0.71822227112E+00 0.57126598981E+00 0.43406995947E+00 0.31657194004E+00 0.22317626822E+00
 0.15391894165E+00 0.10588182491E+00 0.75199530513E-01 0.57893084889E-01 0.50560436906E-01
 0.50352986487E-01 0.54907335244E-01 0.62309603568E-01 0.70755796719E-01 0.78563861380E-01
 0.84302713233E-01 0.86953671854E-01 0.86053847237E-01 0.81764833519E-01 0.74845365532E-01
 0.66515924952E-01 0.58371100948E-01 0.52170165717E-01 0.49733471871E-01 0.53161005614E-01
 0.72135169976E-01 0.94616125628E-01 0.13271678247E+00 0.18982440719E+00 0.26868757584E+00
 0.36993734118E+00 0.49035478377E+00 0.62212897232E+00 0.75218272511E+00 0.86331669378E+00
 0.93875428958E+00 0.96551845957E+00 0.93875665021E+00 0.86331615989E+00 0.75218162213E+00
 0.62212621030E+00 0.49036158764E+00 0.36993809086E+00 0.26869104247E+00 0.18983592174E+00
 0.13272057284E+00 0.94609950303E-01 0.72126594408E-01 0.61921079975E-01 0.61103966919E-01
 0.67137993672E-01 0.77886227147E-01 0.91129908716E-01 0.10462767757E+00 0.11621332150E+00
 0.12403527454E+00 0.12679776609E+00 0.12403911087E+00 0.11621401479E+00 0.10461928524E+00
 0.91126350731E-01 0.77883156107E-01 0.67125854545E-01 0.61099406123E-01 0.61926464735E-01
 0.77983325538E-01 0.98034962334E-01 0.13355153432E+00 0.18702668553E+00 0.26023268899E+00
 0.35276092733E+00 0.46052871070E+00 0.57541105460E+00 0.68512165267E+00 0.77468048075E+00
 0.82991755203E+00 0.84148382372E+00 0.80730855116E+00 0.73340205731E+00 0.63181445784E+00
 0.51775849068E+00 0.40514206215E+00 0.30424621875E+00 0.22110240807E+00 0.15789932203E+00
 0.11369494070E+00 0.86256572890E-01 0.72903712986E-01 0.70993771735E-01 0.78219732392E-01
 0.92440832817E-01 0.11127628508E+00 0.13211621192E+00 0.15213730178E+00 0.16842007037E+00
 0.17843088380E+00 0.18051437495E+00 0.17433894219E+00 0.16091753133E+00 0.14242383901E+00
 0.12161711220E+00 0.10144532513E+00 0.84609175934E-01 0.73601293132E-01 0.70665687848E-01
 0.82385454562E-01 0.98739320128E-01 0.12997606936E+00 0.17763810786E+00 0.24247411690E+00
 0.32313901753E+00 0.41507908054E+00 0.51041540858E+00 0.59819221757E+00 0.66610175316E+00
 0.70326122392E+00 0.70326343979E+00 0.66610243053E+00 0.59819087201E+00 0.51041302158E+00
 0.41508461576E+00 0.32314088718E+00 0.24247691795E+00 0.17765043575E+00 0.12997791263E+00
 0.98734330641E-01 0.82375752752E-01 0.78994145395E-01 0.86767767988E-01 0.10400072662E+00
 0.12853311988E+00 0.15775908600E+00 0.18844691279E+00 0.21667588279E+00 0.23838860465E+00
 0.25020450781E+00 0.25020708644E+00 0.23838923794E+00 0.21667640246E+00 0.18843908992E+00
 0.15775779721E+00 0.12852932289E+00 0.10398768691E+00 0.86764630939E-01 0.78997402373E-01
 0.85040637616E-01 0.96746626128E-01 0.12252878837E+00 0.16290932672E+00 0.21759210716E+00
 0.28468930137E+00 0.35953982388E+00 0.43487191073E+00 0.50154350934E+00 0.54995388743E+00
 0.57228192329E+00 0.56472703884E+00 0.52858972699E+00 0.46990659381E+00 0.39768230792E+00
 0.32154222625E+00 0.24981027026E+00 0.18851623949E+00 0.14088314235E+00 0.10783029886E+00
 0.89201855880E-01 0.84159098447E-01 0.91700655356E-01 0.11086676468E+00 0.14022010537E+00
 0.17766427899E+00 0.22005763561E+00 0.26287700546E+00 0.30066727260E+00 0.32798358501E+00
 0.34055202733E+00 0.33630081191E+00 0.31594282923E+00 0.28275364781E+00 0.24174991836E+00
 0.19849531291E+00 0.15810001092E+00 0.12439563076E+00 0.99909901875E-01 0.86407645054E-01
 0.85882777536E-01 0.92413501148E-01 0.11205370605E+00 0.14439216070E+00 0.18834586429E+00
 0.24158468085E+00 0.29972030625E+00 0.35652387231E+00 0.40465837225E+00 0.43705530231E+00
 0.44849426876E+00 0.43705616480E+00 0.40465759484E+00 0.35652199615E+00 0.29972572521E+00
 0.24158511863E+00 0.18835095829E+00 0.14440251154E+00 0.11205634152E+00 0.92406929051E-01
 0.85874516710E-01 0.92406970627E-01 0.11205637449E+00 0.14440245063E+00 0.18835096305E+00