       N       E                     dE             d eps       ncg     rms          rms(c)
DAV:   1     0.247732293235E+03    0.24773E+03   -0.14338E+04 49992   0.291E+03
DAV:   2     0.135641194179E+02   -0.23417E+03   -0.20163E+03 43792   0.309E+02
DAV:   3    -0.185962152761E+02   -0.32160E+02   -0.30719E+02 46152   0.113E+02
DAV:   4    -0.232768157216E+02   -0.46806E+01   -0.45771E+01 64120   0.306E+01
DAV:   5    -0.234098388648E+02   -0.13302E+00   -0.13257E+00 53280   0.550E+00    0.133E+01
DAV:   6    -0.323689997539E+02   -0.89592E+01   -0.27976E+01 48816   0.482E+01    0.171E+01
DAV:   7    -0.283455206992E+02    0.40235E+01   -0.87794E+00 46448   0.423E+01    0.897E+00
DAV:   8    -0.284486219596E+02   -0.10310E+00   -0.47806E-01 60704   0.469E+00    0.856E+00
DAV:   9    -0.284049093246E+02    0.43713E-01   -0.67407E-01 52704   0.985E+00    0.555E+00
DAV:  10    -0.283571329412E+02    0.47776E-01   -0.22344E-01 62456   0.414E+00    0.367E+00
DAV:  11    -0.282989520740E+02    0.58181E-01   -0.60493E-02 54024   0.202E+00    0.335E+00
DAV:  12    -0.282246287324E+02    0.74323E-01   -0.85289E-02 58088   0.251E+00    0.165E+00
DAV:  13    -0.281815104457E+02    0.43118E-01   -0.14041E-01 55368   0.338E+00    0.115E+00
DAV:  14    -0.281867997853E+02   -0.52893E-02   -0.17490E-02 61776   0.695E-01    0.618E-01
DAV:  15    -0.281889602469E+02   -0.21605E-02   -0.60746E-03 57560   0.748E-01    0.564E-01
DAV:  16    -0.281882644664E+02    0.69578E-03   -0.22202E-03 53376   0.488E-01    0.408E-01
DAV:  17    -0.281880692711E+02    0.19520E-03   -0.31401E-03 57832   0.516E-01    0.515E-02
DAV:  18    -0.281881124041E+02   -0.43133E-04   -0.21609E-04 55384   0.133E-01    0.713E-02
DAV:  19    -0.281880887398E+02    0.23664E-04   -0.38902E-05 61616   0.658E-02    0.214E-02
DAV:  20    -0.281880933769E+02   -0.46371E-05   -0.57544E-06 53352   0.223E-02    0.117E-02
DAV:  21    -0.281880918936E+02    0.14834E-05   -0.10981E-06 57080   0.813E-03    0.402E-03
DAV:  22    -0.281880898260E+02    0.20676E-05   -0.22118E-07 36584   0.492E-03    0.180E-03
DAV:  23    -0.281880912406E+02   -0.14146E-05   -0.13472E-07 29792   0.403E-03    0.506E-04
DAV:  24    -0.281880922586E+02   -0.10180E-05   -0.63296E-08 25944   0.232E-03    0.314E-04
DAV:  25    -0.281880920165E+02    0.24208E-06   -0.17574E-08 23496   0.141E-03    0.237E-04
DAV:  26    -0.281880918955E+02    0.12099E-06   -0.81936E-09 22744   0.542E-04    0.960E-05
DAV:  27    -0.281880919180E+02   -0.22469E-07   -0.43791E-09 22040   0.450E-04
   1 F= -.28188092E+02 E0= -.28188092E+02  d E =0.000000E+00  mag=    15.3705
