=========================================
SLURM_JOB_ID = 63457031
SLURM_JOB_NODELIST = lnode21
SLURM_GPUS = 
SLURM_CPUS_ON_NODE = 8
SLURM_JOB_PARTITION = lenovo
SLURM_TASK_PID = 4156810
CUDA_VISIBLE_DEVICES = 
==========================================
 running on    8 total cores
 distrk:  each k-point on    8 cores,    1 groups
 distr:  one band on    4 cores,    2 groups
 using from now: INCAR     
 vasp.5.4.4.18Apr17-6-g9f103f2a35 (build Apr 28 2018 00:24:27) complex          
  
 POSCAR found type information on POSCAR  Eu S 
 POSCAR found :  2 types and       2 ions
 scaLAPACK will be used

 ----------------------------------------------------------------------------- 
|                                                                             |
|  ADVICE TO THIS USER RUNNING 'VASP/VAMP'   (HEAR YOUR MASTER'S VOICE ...):  |
|                                                                             |
|      You have a (more or less) 'small supercell' and for smaller cells      |
|      it is recommended  to use the reciprocal-space projection scheme!      |
|      The real space optimization is not  efficient for small cells and it   |
|      is also less accurate ...                                              |
|      Therefore set LREAL=.FALSE. in the  INCAR file                         |
|                                                                             |
 ----------------------------------------------------------------------------- 

 LDA part: xc-table for Pade appr. of Perdew
 POSCAR, INCAR and KPOINTS ok, starting setup
 FFT: planning ...
 WAVECAR not read
 entering main loop
       N       E                     dE             d eps       ncg     rms          rms(c)
DAV:   1     0.129679370684E+03    0.12968E+03   -0.85245E+03  1904   0.194E+03
DAV:   2    -0.224505140125E+01   -0.13192E+03   -0.11916E+03  1748   0.251E+02
DAV:   3    -0.152923486798E+02   -0.13047E+02   -0.12636E+02  1904   0.835E+01
DAV:   4    -0.159981444189E+02   -0.70580E+00   -0.69465E+00  2556   0.177E+01
DAV:   5    -0.160320817589E+02   -0.33937E-01   -0.33844E-01  2372   0.297E+00    0.132E+01
DAV:   6    -0.202035305703E+02   -0.41714E+01   -0.46389E+01  2320   0.673E+01    0.177E+01
DAV:   7    -0.190849033232E+02    0.11186E+01   -0.28683E+00  1952   0.384E+01    0.657E+00
DAV:   8    -0.187608048408E+02    0.32410E+00   -0.14348E+00  2700   0.141E+01    0.254E+00
DAV:   9    -0.188329171686E+02   -0.72112E-01   -0.13648E+00  2148   0.976E+00    0.334E+00
DAV:  10    -0.187483579771E+02    0.84559E-01   -0.81027E-01  2092   0.734E+00    0.105E+00
DAV:  11    -0.187606546747E+02   -0.12297E-01   -0.18514E-02  2528   0.967E-01    0.545E-01
DAV:  12    -0.187591797871E+02    0.14749E-02   -0.51947E-03  2464   0.683E-01    0.514E-01
DAV:  13    -0.187574437239E+02    0.17361E-02   -0.46672E-03  2396   0.568E-01    0.269E-01
DAV:  14    -0.187571824108E+02    0.26131E-03   -0.14248E-03  2652   0.306E-01    0.156E-01
DAV:  15    -0.187572518155E+02   -0.69405E-04   -0.19923E-03  2072   0.370E-01    0.105E-02
DAV:  16    -0.187572534368E+02   -0.16213E-05   -0.90381E-05  2504   0.478E-02    0.947E-03
DAV:  17    -0.187572534666E+02   -0.29762E-07   -0.32706E-06  2472   0.822E-03    0.842E-03
DAV:  18    -0.187572576917E+02   -0.42251E-05   -0.69085E-07  2368   0.600E-03    0.810E-03
DAV:  19    -0.187572471214E+02    0.10570E-04   -0.12990E-06  1908   0.980E-03    0.331E-03
DAV:  20    -0.187572426630E+02    0.44584E-05   -0.37639E-07  1672   0.503E-03    0.161E-03
DAV:  21    -0.187572420291E+02    0.63390E-06   -0.36726E-08  1016   0.176E-03    0.128E-03
DAV:  22    -0.187572439021E+02   -0.18730E-05   -0.69912E-08   976   0.268E-03    0.540E-04
DAV:  23    -0.187572439899E+02   -0.87835E-07   -0.75707E-09   920   0.822E-04
   1 F= -.18757244E+02 E0= -.18757244E+02  d E =0.000000E+00  mag=     6.9956
