=========================================
SLURM_JOB_ID = 63457585
SLURM_JOB_NODELIST = lnode43
SLURM_GPUS = 
SLURM_CPUS_ON_NODE = 16
SLURM_JOB_PARTITION = lenovo
SLURM_TASK_PID = 4143427
CUDA_VISIBLE_DEVICES = 
==========================================
 running on   16 total cores
 distrk:  each k-point on   16 cores,    1 groups
 distr:  one band on    4 cores,    4 groups
 using from now: INCAR     
 vasp.5.4.4.18Apr17-6-g9f103f2a35 (build Apr 28 2018 00:24:27) complex          
  
 POSCAR found type information on POSCAR  Eu O 
 POSCAR found :  2 types and       4 ions
 scaLAPACK will be used

 ----------------------------------------------------------------------------- 
|                                                                             |
|  ADVICE TO THIS USER RUNNING 'VASP/VAMP'   (HEAR YOUR MASTER'S VOICE ...):  |
|                                                                             |
|      You have a (more or less) 'small supercell' and for smaller cells      |
|      it is recommended  to use the reciprocal-space projection scheme!      |
|      The real space optimization is not  efficient for small cells and it   |
|      is also less accurate ...                                              |
|      Therefore set LREAL=.FALSE. in the  INCAR file                         |
|                                                                             |
 ----------------------------------------------------------------------------- 

 LDA part: xc-table for Pade appr. of Perdew
 POSCAR, INCAR and KPOINTS ok, starting setup
 FFT: planning ...
 WAVECAR not read
 entering main loop
       N       E                     dE             d eps       ncg     rms          rms(c)
DAV:   1     0.463446663004E+03    0.46345E+03   -0.19104E+04 67072   0.373E+03
DAV:   2     0.560328748112E+02   -0.40741E+03   -0.38001E+03 80184   0.439E+02
DAV:   3    -0.329529604665E+02   -0.88986E+02   -0.87043E+02 93984   0.275E+02
DAV:   4    -0.405690412707E+02   -0.76161E+01   -0.73697E+01 99704   0.695E+01
DAV:   5    -0.412866776001E+02   -0.71764E+00   -0.68925E+00103040   0.184E+01    0.264E+01
DAV:   6    -0.452798280465E+02   -0.39932E+01   -0.24876E+02 85756   0.160E+02    0.344E+01
DAV:   7    -0.406338241062E+02    0.46460E+01   -0.93097E+01 82764   0.152E+02    0.160E+01
DAV:   8    -0.418858988988E+02   -0.12521E+01   -0.13268E+01 97040   0.325E+01    0.633E+00
DAV:   9    -0.416725311660E+02    0.21337E+00   -0.56934E+00 97904   0.198E+01    0.574E+00
DAV:  10    -0.416851534606E+02   -0.12622E-01   -0.70545E-01102940   0.789E+00    0.383E+00
DAV:  11    -0.416458405406E+02    0.39313E-01   -0.32720E-01 95536   0.549E+00    0.255E+00
DAV:  12    -0.416178724083E+02    0.27968E-01   -0.15090E-01 87676   0.379E+00    0.644E-01
DAV:  13    -0.416211918905E+02   -0.33195E-02   -0.29550E-02109068   0.170E+00    0.591E-01
DAV:  14    -0.416197066173E+02    0.14853E-02   -0.58779E-03103544   0.890E-01    0.274E-01
DAV:  15    -0.416201061161E+02   -0.39950E-03   -0.17442E-03106456   0.387E-01    0.254E-01
DAV:  16    -0.416199035836E+02    0.20253E-03   -0.10393E-03 90684   0.341E-01    0.335E-02
DAV:  17    -0.416199150411E+02   -0.11457E-04   -0.89979E-05104012   0.136E-01    0.238E-02
DAV:  18    -0.416199248887E+02   -0.98475E-05   -0.31814E-05104304   0.633E-02    0.246E-02
DAV:  19    -0.416199214056E+02    0.34831E-05   -0.13951E-05 99512   0.354E-02    0.892E-03
DAV:  20    -0.416199229415E+02   -0.15359E-05   -0.50731E-06 72988   0.234E-02    0.971E-03
DAV:  21    -0.416199232610E+02   -0.31952E-06   -0.29915E-06 45228   0.167E-02    0.105E-02
DAV:  22    -0.416199240447E+02   -0.78371E-06   -0.20486E-06 45044   0.160E-02    0.137E-02
DAV:  23    -0.416199237388E+02    0.30590E-06   -0.14223E-06 40608   0.126E-02    0.139E-02
DAV:  24    -0.416199225049E+02    0.12339E-05   -0.19871E-06 63732   0.232E-02    0.118E-02
DAV:  25    -0.416199224709E+02    0.34051E-07   -0.51793E-06 97560   0.487E-02    0.688E-03
DAV:  26    -0.416199229699E+02   -0.49898E-06   -0.79092E-06 68336   0.201E-02    0.129E-02
DAV:  27    -0.416199233188E+02   -0.34895E-06   -0.41222E-06 65232   0.360E-02    0.109E-02
DAV:  28    -0.416199231130E+02    0.20586E-06   -0.37871E-06 42048   0.152E-02    0.118E-02
DAV:  29    -0.416199236677E+02   -0.55476E-06   -0.35721E-06 44724   0.168E-02    0.135E-02
DAV:  30    -0.416199236076E+02    0.60134E-07   -0.13307E-06 40604   0.127E-02    0.141E-02
DAV:  31    -0.416199235051E+02    0.10254E-06   -0.46706E-07 39780   0.824E-03    0.145E-02
DAV:  32    -0.416199234835E+02    0.21545E-07   -0.20813E-07 40044   0.745E-03
   1 F= -.41619923E+02 E0= -.41619923E+02  d E =0.000000E+00  mag=    -0.0000
