=========================================
SLURM_JOB_ID = 63601881
SLURM_JOB_NODELIST = lnode32
SLURM_GPUS = 
SLURM_CPUS_ON_NODE = 8
SLURM_JOB_PARTITION = lenovo
SLURM_TASK_PID = 2341215
CUDA_VISIBLE_DEVICES = 
==========================================
 running on    8 total cores
 distrk:  each k-point on    8 cores,    1 groups
 distr:  one band on    4 cores,    2 groups
 using from now: INCAR     
 vasp.5.4.4.18Apr17-6-g9f103f2a35 (build Apr 28 2018 00:24:27) complex          
  
 POSCAR found type information on POSCAR  Ni
 POSCAR found :  1 types and       4 ions
 scaLAPACK will be used
 LDA part: xc-table for Pade appr. of Perdew
 WARNING: stress and forces are not correct
 POSCAR, INCAR and KPOINTS ok, starting setup
 FFT: planning ...
 WAVECAR not read
 charge-density read from file: unknown                                 
 magnetization density read from file 1
 entering main loop
       N       E                     dE             d eps       ncg     rms          rms(c)
DAV:   1     0.735078975463E+03    0.73508E+03   -0.34543E+04  4376   0.160E+03
DAV:   2     0.189974957615E+02   -0.71608E+03   -0.67919E+03  3984   0.522E+02
DAV:   3    -0.197444977789E+02   -0.38742E+02   -0.36516E+02  4232   0.137E+02
DAV:   4    -0.203196897363E+02   -0.57519E+00   -0.57444E+00  4224   0.170E+01
DAV:   5    -0.203317651526E+02   -0.12075E-01   -0.12075E-01  4336   0.238E+00
DAV:   6    -0.203322068168E+02   -0.44166E-03   -0.44166E-03  4528   0.445E-01
DAV:   7    -0.203322233138E+02   -0.16497E-04   -0.16496E-04  4264   0.801E-02
DAV:   8    -0.203322240801E+02   -0.76622E-06   -0.76658E-06  3888   0.170E-02
   1 F= -.20332224E+02 E0= -.20263053E+02  d E =-.138343E+00  mag=     2.3812
 writing wavefunctions
