       N       E                     dE             d eps       ncg     rms          rms(c)
DAV:   1     0.151836269654E+03    0.15184E+03   -0.10509E+04108532   0.274E+03
DAV:   2    -0.408310984425E+01   -0.15592E+03   -0.13685E+03 97324   0.305E+02
DAV:   3    -0.198826754809E+02   -0.15800E+02   -0.15178E+02100768   0.103E+02
DAV:   4    -0.206941882834E+02   -0.81151E+00   -0.78841E+00140036   0.209E+01
DAV:   5    -0.207222753187E+02   -0.28087E-01   -0.27934E-01121968   0.300E+00    0.180E+01
DAV:   6    -0.255391496867E+02   -0.48169E+01   -0.98104E+01134416   0.108E+02    0.270E+01
DAV:   7    -0.209483224975E+02    0.45908E+01   -0.18968E+01112824   0.805E+01    0.997E+00
DAV:   8    -0.209439622436E+02    0.43603E-02   -0.12913E+00132268   0.983E+00    0.472E+00
DAV:   9    -0.209085620805E+02    0.35400E-01   -0.16293E+00134440   0.113E+01    0.254E+00
DAV:  10    -0.208594815058E+02    0.49081E-01   -0.23357E-01124148   0.443E+00    0.916E-01
DAV:  11    -0.208570328699E+02    0.24486E-02   -0.13929E-02128920   0.127E+00    0.744E-01
DAV:  12    -0.208575706609E+02   -0.53779E-03   -0.21751E-02131596   0.141E+00    0.376E-01
DAV:  13    -0.208576208866E+02   -0.50226E-04   -0.17988E-03130160   0.309E-01    0.188E-01
DAV:  14    -0.208576651290E+02   -0.44242E-04   -0.17144E-03124332   0.415E-01    0.736E-02
DAV:  15    -0.208576430052E+02    0.22124E-04   -0.10375E-04127316   0.856E-02    0.498E-02
DAV:  16    -0.208576419013E+02    0.11039E-05   -0.16768E-05126456   0.300E-02    0.206E-02
DAV:  17    -0.208576425772E+02   -0.67583E-06   -0.26977E-06141156   0.135E-02    0.778E-03
DAV:  18    -0.208576416950E+02    0.88219E-06   -0.47159E-07127816   0.600E-03    0.401E-03
DAV:  19    -0.208576411757E+02    0.51930E-06   -0.14110E-07 68388   0.373E-03    0.179E-03
DAV:  20    -0.208576408391E+02    0.33657E-06   -0.84980E-08 50992   0.257E-03    0.245E-04
DAV:  21    -0.208576407433E+02    0.95771E-07   -0.13357E-08 48484   0.125E-03
   1 F= -.20857641E+02 E0= -.20857641E+02  d E =0.000000E+00  mag=     6.9858
