unknown system                          
   1.00000000000000     
     2.478974    0.000000    0.000000
     0.000000    2.862472    2.024073
     0.000000   -1.431236    2.024073
   Ni
     2
Direct
  0.500000  0.500000  0.500000
  0.000000  0.000000  0.000000
 
   36   56   36
 0.87642252466E+03 0.18351663497E+04 0.40118510606E+03 0.62877104409E+03 0.63728311276E+03
 0.46345171118E+03 0.29256058093E+03 0.17509324641E+03 0.10391920077E+03 0.62734596550E+02
 0.39153477596E+02 0.25508229098E+02 0.17484232832E+02 0.12497990657E+02 0.96489307808E+01
 0.78386899493E+01 0.67224901992E+01 0.61450786739E+01 0.59480893472E+01 0.61450786739E+01
 0.67224901992E+01 0.78386899493E+01 0.96489307808E+01 0.12497990657E+02 0.17484232832E+02
 0.25508229098E+02 0.39153477596E+02 0.62734596550E+02 0.10391920077E+03 0.17509324641E+03
 0.29256058093E+03 0.46345171118E+03 0.63728311276E+03 0.62877104409E+03 0.40118510606E+03
 0.18351663497E+04 0.21241489522E+04 0.92033573692E+03 0.42230600214E+03 0.64950071968E+03
 0.62357333248E+03 0.44794497532E+03 0.28274878109E+03 0.16979106319E+03 0.10119244826E+03
 0.61345303097E+02 0.38430832394E+02 0.25125332104E+02 0.17270692256E+02 0.12388177435E+02
 0.95768036389E+01 0.77933179880E+01 0.66906190438E+01 0.61211933335E+01 0.59256229105E+01
 0.61211933335E+01 0.66906190438E+01 0.77933179880E+01 0.95768036389E+01 0.12388177435E+02
 0.17270692256E+02 0.25125332104E+02 0.38430832394E+02 0.61345303097E+02 0.10119244826E+03
 0.16979106319E+03 0.28274878109E+03 0.44794497532E+03 0.62357333248E+03 0.64950071968E+03
 0.42230600214E+03 0.92033573692E+03 0.43051578478E+03 0.40433911019E+03 0.56089417452E+03
 0.67210448573E+03 0.57679553972E+03 0.40392096988E+03 0.25550005663E+03 0.15504632963E+03
 0.93561916381E+02 0.57417392021E+02 0.36376739399E+02 0.24027145533E+02 0.16655130147E+02
 0.12066202585E+02 0.93670384367E+01 0.76598056931E+01 0.65983947748E+01 0.60511110986E+01
 0.58609817767E+01 0.60511110986E+01 0.65983947748E+01 0.76598056931E+01 0.93670384367E+01
 0.12066202585E+02 0.16655130147E+02 0.24027145533E+02 0.36376739399E+02 0.57417392021E+02
 0.93561916381E+02 0.15504632963E+03 0.25550005663E+03 0.40392096988E+03 0.57679553972E+03
 0.67210448573E+03 0.56089417452E+03 0.40433911019E+03 0.56745705291E+03 0.61016281995E+03
 0.66998650431E+03 0.63017180633E+03 0.49369679148E+03 0.33943360123E+03 0.21666545395E+03
 0.13389428504E+03 0.82446522223E+02 0.51608707509E+02 0.33290169686E+02 0.22357711017E+02
 0.15704181865E+02 0.11554902940E+02 0.90392042845E+01 0.74473276573E+01 0.64530631602E+01
 0.59377853813E+01 0.57586849375E+01 0.59377853813E+01 0.64530631602E+01 0.74473276573E+01
 0.90392042845E+01 0.11554902940E+02 0.15704181865E+02 0.22357711017E+02 0.33290169686E+02
 0.51608707509E+02 0.82446522223E+02 0.13389428504E+03 0.21666545395E+03 0.33943360123E+03
 0.49369679148E+03 0.63017180633E+03 0.66998650431E+03 0.61016281995E+03 0.66906614825E+03
 0.66087084938E+03 0.61653618442E+03 0.51791498269E+03 0.38861521683E+03 0.26699746983E+03
 0.17363106827E+03 0.11010387302E+03 0.69664298767E+02 0.44765948414E+02 0.29576977112E+02
 0.20306382318E+02 0.14164981955E+02 0.10889936737E+02 0.86214291970E+01 0.71692077257E+01
 0.62667941500E+01 0.57872890214E+01 0.56276025084E+01 0.57872890214E+01 0.62667941500E+01
 0.71692077257E+01 0.86214291970E+01 0.10889936737E+02 0.14164981955E+02 0.20306382318E+02
 0.29576977112E+02 0.44765948414E+02 0.69664298767E+02 0.11010387302E+03 0.17363106827E+03
 0.26699746983E+03 0.38861521683E+03 0.51791498269E+03 0.61653618442E+03 0.66087084938E+03
 0.54949034286E+03 0.52923644276E+03 0.46987259692E+03 0.38150368002E+03 0.28465025964E+03
 0.19872045543E+03 0.13284991550E+03 0.86999558756E+02 0.56874475910E+02 0.37714824691E+02
 0.25647747932E+02 0.18073955038E+02 0.13032846804E+02 0.10123033893E+02 0.81435683523E+01
 0.68457056573E+01 0.60503318138E+01 0.56088924095E+01 0.54743663743E+01 0.56088924095E+01
 0.60503318138E+01 0.68457056573E+01 0.81435683523E+01 0.10123033893E+02 0.13032846804E+02
 0.18073955038E+02 0.25647747932E+02 0.37714824691E+02 0.56874475910E+02 0.86999558756E+02
 0.13284991550E+03 0.19872045543E+03 0.28465025964E+03 0.38150368002E+03 0.46987259692E+03
 0.52923644276E+03 0.38002283179E+03 0.36434513115E+03 0.32120450560E+03 0.26127706560E+03
 0.19801912563E+03 0.14203818996E+03 0.98239293848E+02 0.66736708538E+02 0.45267785279E+02
 0.31081209204E+02 0.21845897547E+02 0.15830245654E+02 0.11824761404E+02 0.93173395460E+01
 0.76299997012E+01 0.65021257977E+01 0.58120762458E+01 0.54181210437E+01 0.53040576285E+01
 0.54181210437E+01 0.58120762458E+01 0.65021257977E+01 0.76299997012E+01 0.93173395460E+01
 0.11824761404E+02 0.15830245654E+02 0.21845897547E+02 0.31081209204E+02 0.45267785279E+02
 0.66736708538E+02 0.98239293848E+02 0.14203818996E+03 0.19801912563E+03 0.26127706560E+03
 0.32120450560E+03 0.36434513115E+03 0.24348275173E+03 0.23392701523E+03 0.20786652183E+03
 0.17185638660E+03 0.13360485976E+03 0.99031249104E+02 0.71119001429E+02 0.50239986730E+02
 0.35439974996E+02 0.25255060712E+02 0.18386317246E+02 0.13477432896E+02 0.10597889926E+02
 0.85275164333E+01 0.71061846179E+01 0.61613349222E+01 0.55607814259E+01 0.52284159018E+01
 0.51215735732E+01 0.52284159018E+01 0.55607814259E+01 0.61613349222E+01 0.71061846179E+01
 0.85275164333E+01 0.10597889926E+02 0.13477432896E+02 0.18386317246E+02 0.25255060712E+02
 0.35439974996E+02 0.50239986730E+02 0.71119001429E+02 0.99031249104E+02 0.13360485976E+03
 0.17185638660E+03 0.20786652183E+03 0.23392701523E+03 0.15175090431E+03 0.14641204673E+03
 0.13175876000E+03 0.11127971589E+03 0.89050629021E+02 0.68356557712E+02 0.51003418457E+02
 0.37511930957E+02 0.27533778900E+02 0.20393368798E+02 0.15368008511E+02 0.11790098464E+02
 0.94432412537E+01 0.77766478322E+01 0.66082199044E+01 0.58287609172E+01 0.53182520367E+01
 0.50414036628E+01 0.49453689664E+01 0.50414036628E+01 0.53182520367E+01 0.58287609172E+01
 0.66082199044E+01 0.77766478322E+01 0.94432412537E+01 0.11790098464E+02 0.15368008511E+02
 0.20393368798E+02 0.27533778900E+02 0.37511930957E+02 0.51003418457E+02 0.68356557712E+02
 0.89050629021E+02 0.11127971589E+03 0.13175876000E+03 0.14641204673E+03 0.94591227347E+02
 0.91688621794E+02 0.83652749303E+02 0.72227377181E+02 0.59506399383E+02 0.47277755430E+02
 0.36647826042E+02 0.28041648352E+02 0.21403604378E+02 0.16472789937E+02 0.12694133746E+02
 0.10243918034E+02 0.84148913291E+01 0.70872703869E+01 0.61585845542E+01 0.55134917347E+01
 0.50989240077E+01 0.48607392849E+01 0.47875511505E+01 0.48607392849E+01 0.50989240077E+01
 0.55134917347E+01 0.61585845542E+01 0.70872703869E+01 0.84148913291E+01 0.10243918034E+02
 0.12694133746E+02 0.16472789937E+02 0.21403604378E+02 0.28041648352E+02 0.36647826042E+02
 0.47277755430E+02 0.59506399383E+02 0.72227377181E+02 0.83652749303E+02 0.91688621794E+02
 0.59957793620E+02 0.58377854886E+02 0.53976503114E+02 0.47603599547E+02 0.40337195338E+02
 0.33123710676E+02 0.26620102851E+02 0.21149362647E+02 0.16781541549E+02 0.13160746183E+02
 0.10785071463E+02 0.89202879372E+01 0.75166236037E+01 0.64916377287E+01 0.57535989720E+01
 0.52385964132E+01 0.48990239920E+01 0.47068119182E+01 0.46440681497E+01 0.47068119182E+01
 0.48990239920E+01 0.52385964132E+01 0.57535989720E+01 0.64916377287E+01 0.75166236037E+01
 0.89202879372E+01 0.10785071463E+02 0.13160746183E+02 0.16781541549E+02 0.21149362647E+02
 0.26620102851E+02 0.33123710676E+02 0.40337195338E+02 0.47603599547E+02 0.53976503114E+02
 0.58377854886E+02 0.39083741514E+02 0.38216343309E+02 0.35770691133E+02 0.32175105107E+02
 0.27970083142E+02 0.23681710066E+02 0.19695830335E+02 0.16216095742E+02 0.13105343324E+02
 0.10962731783E+02 0.92009398966E+01 0.78185249680E+01 0.67674734654E+01 0.59840940068E+01
 0.54098183138E+01 0.50032156914E+01 0.47321319549E+01 0.45778542209E+01 0.45271552832E+01
 0.45778542209E+01 0.47321319549E+01 0.50032156914E+01 0.54098183138E+01 0.59840940068E+01
 0.67674734654E+01 0.78185249680E+01 0.92009398966E+01 0.10962731783E+02 0.13105343324E+02
 0.16216095742E+02 0.19695830335E+02 0.23681710066E+02 0.27970083142E+02 0.32175105107E+02
 0.35770691133E+02 0.38216343309E+02 0.26368529584E+02 0.25880465941E+02 0.24498594579E+02
 0.22436688741E+02 0.19980650098E+02 0.17399017976E+02 0.14908393192E+02 0.12532282974E+02
 0.10739341194E+02 0.91992092495E+01 0.79342894251E+01 0.69320681676E+01 0.61570821418E+01
 0.55664878504E+01 0.51278747770E+01 0.48125838253E+01 0.46019678009E+01 0.44803119686E+01
 0.44411966893E+01 0.44803119686E+01 0.46019678009E+01 0.48125838253E+01 0.51278747770E+01
 0.55664878504E+01 0.61570821418E+01 0.69320681676E+01 0.79342894251E+01 0.91992092495E+01
 0.10739341194E+02 0.12532282974E+02 0.14908393192E+02 0.17399017976E+02 0.19980650098E+02
 0.22436688741E+02 0.24498594579E+02 0.25880465941E+02 0.18517550369E+02 0.18236783912E+02
 0.17432435752E+02 0.16212937294E+02 0.14729886306E+02 0.12955249829E+02 0.11531749270E+02
 0.10150325648E+02 0.89094834682E+01 0.78369415053E+01 0.69496609990E+01 0.62355785721E+01
 0.56710533035E+01 0.52355842080E+01 0.49073787581E+01 0.46703530582E+01 0.45098390784E+01
 0.44178238151E+01 0.43873392242E+01 0.44178238151E+01 0.45098390784E+01 0.46703530582E+01
 0.49073787581E+01 0.52355842080E+01 0.56710533035E+01 0.62355785721E+01 0.69496609990E+01
 0.78369415053E+01 0.89094834682E+01 0.10150325648E+02 0.11531749270E+02 0.12955249829E+02
 0.14729886306E+02 0.16212937294E+02 0.17432435752E+02 0.18236783912E+02 0.13264280177E+02
 0.13119399212E+02 0.12700137911E+02 0.12043054384E+02 0.11204278056E+02 0.10258122001E+02
 0.92956150020E+01 0.83776585824E+01 0.75371800562E+01 0.68103970135E+01 0.61990413351E+01
 0.56974047879E+01 0.52969462172E+01 0.49839157206E+01 0.47470888873E+01 0.45747147575E+01
 0.44588296864E+01 0.43915639191E+01 0.43699462786E+01 0.43915639191E+01 0.44588296864E+01
 0.45747147575E+01 0.47470888873E+01 0.49839157206E+01 0.52969462172E+01 0.56974047879E+01
 0.61990413351E+01 0.68103970135E+01 0.75371800562E+01 0.83776585824E+01 0.92956150020E+01
 0.10258122001E+02 0.11204278056E+02 0.12043054384E+02 0.12700137911E+02 0.13119399212E+02
 0.10263157473E+02 0.10166180933E+02 0.98849706550E+01 0.94511537799E+01 0.89093749376E+01
 0.83076845361E+01 0.76833050113E+01 0.70785954645E+01 0.65308342125E+01 0.60461443733E+01
 0.56334813732E+01 0.52930705654E+01 0.50187910967E+01 0.48049978654E+01 0.46431775630E+01
 0.45263983849E+01 0.44473547154E+01 0.44023123091E+01 0.43873398221E+01 0.44023123091E+01
 0.44473547154E+01 0.45263983849E+01 0.46431775630E+01 0.48049978654E+01 0.50187910967E+01
 0.52930705654E+01 0.56334813732E+01 0.60461443733E+01 0.65308342125E+01 0.70785954645E+01
 0.76833050113E+01 0.83076845361E+01 0.89093749376E+01 0.94511537799E+01 0.98849706550E+01
 0.10166180933E+02 0.81431836204E+01 0.80838049031E+01 0.79122077065E+01 0.76436176005E+01
 0.73020011602E+01 0.69169784755E+01 0.65246111897E+01 0.61467827029E+01 0.57929165530E+01
 0.54817766548E+01 0.52167074542E+01 0.49979087216E+01 0.48243693709E+01 0.46904502857E+01
 0.45912259092E+01 0.45208820081E+01 0.44752647929E+01 0.44492935403E+01 0.44411978918E+01
 0.44492935403E+01 0.44752647929E+01 0.45208820081E+01 0.45912259092E+01 0.46904502857E+01
 0.48243693709E+01 0.49979087216E+01 0.52167074542E+01 0.54817766548E+01 0.57929165530E+01
 0.61467827029E+01 0.65246111897E+01 0.69169784755E+01 0.73020011602E+01 0.76436176005E+01
 0.79122077065E+01 0.80838049031E+01 0.66748088391E+01 0.66383775743E+01 0.65324906277E+01
 0.63694617049E+01 0.61659303466E+01 0.59394754476E+01 0.57011380654E+01 0.54673236528E+01
 0.52569500075E+01 0.50714751067E+01 0.49165831570E+01 0.47937958774E+01 0.46998692936E+01
 0.46322554744E+01 0.45862923152E+01 0.45570814864E+01 0.45391668634E+01 0.45301573153E+01
 0.45271570878E+01 0.45301573153E+01 0.45391668634E+01 0.45570814864E+01 0.45862923152E+01
 0.46322554744E+01 0.46998692936E+01 0.47937958774E+01 0.49165831570E+01 0.50714751067E+01
 0.52569500075E+01 0.54673236528E+01 0.57011380654E+01 0.59394754476E+01 0.61659303466E+01
 0.63694617049E+01 0.65324906277E+01 0.66383775743E+01 0.56560716078E+01 0.56357956132E+01
 0.55774636339E+01 0.54855723669E+01 0.53680377875E+01 0.52352355748E+01 0.51033358702E+01
 0.49810837656E+01 0.48694310021E+01 0.47787780914E+01 0.47101097389E+01 0.46622942683E+01
 0.46346244801E+01 0.46228345312E+01 0.46216769419E+01 0.46266789856E+01 0.46348719562E+01
 0.46413493093E+01 0.46440705835E+01 0.46413493093E+01 0.46348719562E+01 0.46266789856E+01
 0.46216769419E+01 0.46228345312E+01 0.46346244801E+01 0.46622942683E+01 0.47101097389E+01
 0.47787780914E+01 0.48694310021E+01 0.49810837656E+01 0.51033358702E+01 0.52352355748E+01
 0.53680377875E+01 0.54855723669E+01 0.55774636339E+01 0.56357956132E+01 0.49322119025E+01
 0.49215867624E+01 0.48906237833E+01 0.48445581742E+01 0.47899147164E+01 0.47337045025E+01
 0.46776067834E+01 0.46279820616E+01 0.45952621841E+01 0.45772784034E+01 0.45756427878E+01
 0.45903095547E+01 0.46172856491E+01 0.46517706335E+01 0.46908455700E+01 0.47296549557E+01
 0.47606595216E+01 0.47808789903E+01 0.47875541828E+01 0.47808789903E+01 0.47606595216E+01
 0.47296549557E+01 0.46908455700E+01 0.46517706335E+01 0.46172856491E+01 0.45903095547E+01
 0.45756427878E+01 0.45772784034E+01 0.45952621841E+01 0.46279820616E+01 0.46776067834E+01
 0.47337045025E+01 0.47899147164E+01 0.48445581742E+01 0.48906237833E+01 0.49215867624E+01
 0.44150827617E+01 0.44120499626E+01 0.44042208458E+01 0.43924532284E+01 0.43793225921E+01
 0.43682107141E+01 0.43676982458E+01 0.43809435875E+01 0.44046892655E+01 0.44442892065E+01
 0.44982959075E+01 0.45637561581E+01 0.46362779528E+01 0.47140505781E+01 0.47894260695E+01
 0.48529075782E+01 0.49025877093E+01 0.49340852674E+01 0.49453726240E+01 0.49340852674E+01
 0.49025877093E+01 0.48529075782E+01 0.47894260695E+01 0.47140505781E+01 0.46362779528E+01
 0.45637561581E+01 0.44982959075E+01 0.44442892065E+01 0.44046892655E+01 0.43809435875E+01
 0.43676982458E+01 0.43682107141E+01 0.43793225921E+01 0.43924532284E+01 0.44042208458E+01
 0.44120499626E+01 0.40395273060E+01 0.40411106555E+01 0.40461308108E+01 0.40571005748E+01
 0.40771495750E+01 0.41091207590E+01 0.41513682526E+01 0.42053740760E+01 0.42778609991E+01
 0.43636759746E+01 0.44628699518E+01 0.45704814312E+01 0.46854529101E+01 0.47988588219E+01
 0.49000362849E+01 0.49897898721E+01 0.50604138130E+01 0.51063230296E+01 0.51215778888E+01
 0.51063230296E+01 0.50604138130E+01 0.49897898721E+01 0.49000362849E+01 0.47988588219E+01
 0.46854529101E+01 0.45704814312E+01 0.44628699518E+01 0.43636759746E+01 0.42778609991E+01
 0.42053740760E+01 0.41513682526E+01 0.41091207590E+01 0.40771495750E+01 0.40571005748E+01
 0.40461308108E+01 0.40411106555E+01 0.37681176118E+01 0.37741743849E+01 0.37920656405E+01
 0.38224985746E+01 0.38649096521E+01 0.39211413492E+01 0.39952038013E+01 0.40893159150E+01
 0.41963227375E+01 0.43210197750E+01 0.44568340766E+01 0.46027089037E+01 0.47520002493E+01
 0.48915600576E+01 0.50246558095E+01 0.51406451135E+01 0.52299886166E+01 0.52850065611E+01
 0.53040624906E+01 0.52850065611E+01 0.52299886166E+01 0.51406451135E+01 0.50246558095E+01
 0.48915600576E+01 0.47520002493E+01 0.46027089037E+01 0.44568340766E+01 0.43210197750E+01
 0.41963227375E+01 0.40893159150E+01 0.39952038013E+01 0.39211413492E+01 0.38649096521E+01
 0.38224985746E+01 0.37920656405E+01 0.37741743849E+01 0.35713788719E+01 0.35793031716E+01
 0.36041075358E+01 0.36462425857E+01 0.37084987067E+01 0.37910927135E+01 0.38920089336E+01
 0.40095041029E+01 0.41492459236E+01 0.43039146125E+01 0.44711066624E+01 0.46493462201E+01
 0.48229733038E+01 0.49938130019E+01 0.51542038506E+01 0.52891977428E+01 0.53904400753E+01
 0.54530461422E+01 0.54743717311E+01 0.54530461422E+01 0.53904400753E+01 0.52891977428E+01
 0.51542038506E+01 0.49938130019E+01 0.48229733038E+01 0.46493462201E+01 0.44711066624E+01
 0.43039146125E+01 0.41492459236E+01 0.40095041029E+01 0.38920089336E+01 0.37910927135E+01
 0.37084987067E+01 0.36462425857E+01 0.36041075358E+01 0.35793031716E+01 0.34312324498E+01
 0.34418209682E+01 0.34746797254E+01 0.35284708280E+01 0.36035264557E+01 0.36987295757E+01
 0.38186827272E+01 0.39620708878E+01 0.41239143246E+01 0.43026213703E+01 0.44976238480E+01
 0.46979927666E+01 0.48966601188E+01 0.50944532401E+01 0.52741575692E+01 0.54228354558E+01
 0.55342121574E+01 0.56038822321E+01 0.56276083468E+01 0.56038822321E+01 0.55342121574E+01
 0.54228354558E+01 0.52741575692E+01 0.50944532401E+01 0.48966601188E+01 0.46979927666E+01
 0.44976238480E+01 0.43026213703E+01 0.41239143246E+01 0.39620708878E+01 0.38186827272E+01
 0.36987295757E+01 0.36035264557E+01 0.35284708280E+01 0.34746797254E+01 0.34418209682E+01
 0.33334239952E+01 0.33453064661E+01 0.33807419599E+01 0.34408950608E+01 0.35268909636E+01
 0.36393987740E+01 0.37748102962E+01 0.39312920191E+01 0.41128354835E+01 0.43109500977E+01
 0.45258179287E+01 0.47441045372E+01 0.49648334711E+01 0.51827590197E+01 0.53746969699E+01
 0.55346982574E+01 0.56555959244E+01 0.57328763746E+01 0.57586912234E+01 0.57328763746E+01
 0.56555959244E+01 0.55346982574E+01 0.53746969699E+01 0.51827590197E+01 0.49648334711E+01
 0.47441045372E+01 0.45258179287E+01 0.43109500977E+01 0.41128354835E+01 0.39312920191E+01
 0.37748102962E+01 0.36393987740E+01 0.35268909636E+01 0.34408950608E+01 0.33807419599E+01
 0.33453064661E+01 0.32696151544E+01 0.32833208249E+01 0.33233972891E+01 0.33904472235E+01
 0.34823414622E+01 0.35997960776E+01 0.37442917462E+01 0.39168971613E+01 0.41087921810E+01
 0.43214546971E+01 0.45504216342E+01 0.47817223343E+01 0.50202455650E+01 0.52493176589E+01
 0.54511410219E+01 0.56203956146E+01 0.57502386750E+01 0.58328197639E+01 0.58609884087E+01
 0.58328197639E+01 0.57502386750E+01 0.56203956146E+01 0.54511410219E+01 0.52493176589E+01
 0.50202455650E+01 0.47817223343E+01 0.45504216342E+01 0.43214546971E+01 0.41087921810E+01
 0.39168971613E+01 0.37442917462E+01 0.35997960776E+01 0.34823414622E+01 0.33904472235E+01
 0.33233972891E+01 0.32833208249E+01 0.32335066401E+01 0.32473841501E+01 0.32875406422E+01
 0.33562529811E+01 0.34531157662E+01 0.35800434025E+01 0.37315550690E+01 0.39074776374E+01
 0.41085975068E+01 0.43300702112E+01 0.45663109339E+01 0.48071168250E+01 0.50551815599E+01
 0.52914096952E+01 0.54988796412E+01 0.56744603777E+01 0.58097870420E+01 0.58963210823E+01
 0.59256297625E+01 0.58963210823E+01 0.58097870420E+01 0.56744603777E+01 0.54988796412E+01
 0.52914096952E+01 0.50551815599E+01 0.48071168250E+01 0.45663109339E+01 0.43300702112E+01
 0.41085975068E+01 0.39074776374E+01 0.37315550690E+01 0.35800434025E+01 0.34531157662E+01
 0.33562529811E+01 0.32875406422E+01 0.32473841501E+01 0.32218825754E+01 0.32365085665E+01
 0.32789452169E+01 0.33501580418E+01 0.34475059112E+01 0.35720873417E+01 0.37245913776E+01
 0.39067885899E+01 0.41084957081E+01 0.43329430865E+01 0.45722691400E+01 0.48156195090E+01
 0.50676106282E+01 0.53052282708E+01 0.55153522544E+01 0.56930858520E+01 0.58307214928E+01
 0.59180618940E+01 0.59480962703E+01 0.59180618940E+01 0.58307214928E+01 0.56930858520E+01
 0.55153522544E+01 0.53052282708E+01 0.50676106282E+01 0.48156195090E+01 0.45722691400E+01
 0.43329430865E+01 0.41084957081E+01 0.39067885899E+01 0.37245913776E+01 0.35720873417E+01
 0.34475059112E+01 0.33501580418E+01 0.32789452169E+01 0.32365085665E+01 0.32335066401E+01
 0.32473841501E+01 0.32875406422E+01 0.33562529811E+01 0.34531157662E+01 0.35800434025E+01
 0.37315550690E+01 0.39074776374E+01 0.41085975068E+01 0.43300702112E+01 0.45663109339E+01
 0.48071168250E+01 0.50551815599E+01 0.52914096952E+01 0.54988796412E+01 0.56744603777E+01
 0.58097870420E+01 0.58963210823E+01 0.59256297625E+01 0.58963210823E+01 0.58097870420E+01
 0.56744603777E+01 0.54988796412E+01 0.52914096952E+01 0.50551815599E+01 0.48071168250E+01
 0.45663109339E+01 0.43300702112E+01 0.41085975068E+01 0.39074776374E+01 0.37315550690E+01
 0.35800434025E+01 0.34531157662E+01 0.33562529811E+01 0.32875406422E+01 0.32473841501E+01
 0.32696151544E+01 0.32833208249E+01 0.33233972891E+01 0.33904472235E+01 0.34823414622E+01
 0.35997960776E+01 0.37442917462E+01 0.39168971613E+01 0.41087921810E+01 0.43214546971E+01
 0.45504216342E+01 0.47817223343E+01 0.50202455650E+01 0.52493176589E+01 0.54511410219E+01
 0.56203956146E+01 0.57502386750E+01 0.58328197639E+01 0.58609884087E+01 0.58328197639E+01
 0.57502386750E+01 0.56203956146E+01 0.54511410219E+01 0.52493176589E+01 0.50202455650E+01
 0.47817223343E+01 0.45504216342E+01 0.43214546971E+01 0.41087921810E+01 0.39168971613E+01
 0.37442917462E+01 0.35997960776E+01 0.34823414622E+01 0.33904472235E+01 0.33233972891E+01
 0.32833208249E+01 0.33334239952E+01 0.33453064661E+01 0.33807419599E+01 0.34408950608E+01
 0.35268909636E+01 0.36393987740E+01 0.37748102962E+01 0.39312920191E+01 0.41128354835E+01
 0.43109500977E+01 0.45258179287E+01 0.47441045372E+01 0.49648334711E+01 0.51827590197E+01
 0.53746969699E+01 0.55346982574E+01 0.56555959244E+01 0.57328763746E+01 0.57586912234E+01
 0.57328763746E+01 0.56555959244E+01 0.55346982574E+01 0.53746969699E+01 0.51827590197E+01
 0.49648334711E+01 0.47441045372E+01 0.45258179287E+01 0.43109500977E+01 0.41128354835E+01
 0.39312920191E+01 0.37748102962E+01 0.36393987740E+01 0.35268909636E+01 0.34408950608E+01
 0.33807419599E+01 0.33453064661E+01 0.34312324498E+01 0.34418209682E+01 0.34746797254E+01
 0.35284708280E+01 0.36035264557E+01 0.36987295757E+01 0.38186827272E+01 0.39620708878E+01
 0.41239143246E+01 0.43026213703E+01 0.44976238480E+01 0.46979927666E+01 0.48966601188E+01
 0.50944532401E+01 0.52741575692E+01 0.54228354558E+01 0.55342121574E+01 0.56038822321E+01
 0.56276083468E+01 0.56038822321E+01 0.55342121574E+01 0.54228354558E+01 0.52741575692E+01
 0.50944532401E+01 0.48966601188E+01 0.46979927666E+01 0.44976238480E+01 0.43026213703E+01
 0.41239143246E+01 0.39620708878E+01 0.38186827272E+01 0.36987295757E+01 0.36035264557E+01
 0.35284708280E+01 0.34746797254E+01 0.34418209682E+01 0.35713788719E+01 0.35793031716E+01
 0.36041075358E+01 0.36462425857E+01 0.37084987067E+01 0.37910927135E+01 0.38920089336E+01
 0.40095041029E+01 0.41492459236E+01 0.43039146125E+01 0.44711066624E+01 0.46493462201E+01
 0.48229733038E+01 0.49938130019E+01 0.51542038506E+01 0.52891977428E+01 0.53904400753E+01
 0.54530461422E+01 0.54743717311E+01 0.54530461422E+01 0.53904400753E+01 0.52891977428E+01
 0.51542038506E+01 0.49938130019E+01 0.48229733038E+01 0.46493462201E+01 0.44711066624E+01
 0.43039146125E+01 0.41492459236E+01 0.40095041029E+01 0.38920089336E+01 0.37910927135E+01
 0.37084987067E+01 0.36462425857E+01 0.36041075358E+01 0.35793031716E+01 0.37681176118E+01
 0.37741743849E+01 0.37920656405E+01 0.38224985746E+01 0.38649096521E+01 0.39211413492E+01
 0.39952038013E+01 0.40893159150E+01 0.41963227375E+01 0.43210197750E+01 0.44568340766E+01
 0.46027089037E+01 0.47520002493E+01 0.48915600576E+01 0.50246558095E+01 0.51406451135E+01
 0.52299886166E+01 0.52850065611E+01 0.53040624906E+01 0.52850065611E+01 0.52299886166E+01
 0.51406451135E+01 0.50246558095E+01 0.48915600576E+01 0.47520002493E+01 0.46027089037E+01
 0.44568340766E+01 0.43210197750E+01 0.41963227375E+01 0.40893159150E+01 0.39952038013E+01
 0.39211413492E+01 0.38649096521E+01 0.38224985746E+01 0.37920656405E+01 0.37741743849E+01
 0.40395273060E+01 0.40411106555E+01 0.40461308108E+01 0.40571005748E+01 0.40771495750E+01
 0.41091207590E+01 0.41513682526E+01 0.42053740760E+01 0.42778609991E+01 0.43636759746E+01
 0.44628699518E+01 0.45704814312E+01 0.46854529101E+01 0.47988588219E+01 0.49000362849E+01
 0.49897898721E+01 0.50604138130E+01 0.51063230296E+01 0.51215778888E+01 0.51063230296E+01
 0.50604138130E+01 0.49897898721E+01 0.49000362849E+01 0.47988588219E+01 0.46854529101E+01
 0.45704814312E+01 0.44628699518E+01 0.43636759746E+01 0.42778609991E+01 0.42053740760E+01
 0.41513682526E+01 0.41091207590E+01 0.40771495750E+01 0.40571005748E+01 0.40461308108E+01
 0.40411106555E+01 0.44150827617E+01 0.44120499626E+01 0.44042208458E+01 0.43924532284E+01
 0.43793225921E+01 0.43682107141E+01 0.43676982458E+01 0.43809435875E+01 0.44046892655E+01
 0.44442892065E+01 0.44982959075E+01 0.45637561581E+01 0.46362779528E+01 0.47140505781E+01
 0.47894260695E+01 0.48529075782E+01 0.49025877093E+01 0.49340852674E+01 0.49453726240E+01
 0.49340852674E+01 0.49025877093E+01 0.48529075782E+01 0.47894260695E+01 0.47140505781E+01
 0.46362779528E+01 0.45637561581E+01 0.44982959075E+01 0.44442892065E+01 0.44046892655E+01
 0.43809435875E+01 0.43676982458E+01 0.43682107141E+01 0.43793225921E+01 0.43924532284E+01
 0.44042208458E+01 0.44120499626E+01 0.49322119025E+01 0.49215867624E+01 0.48906237833E+01
 0.48445581742E+01 0.47899147164E+01 0.47337045025E+01 0.46776067834E+01 0.46279820616E+01
 0.45952621841E+01 0.45772784034E+01 0.45756427878E+01 0.45903095547E+01 0.46172856491E+01
 0.46517706335E+01 0.46908455700E+01 0.47296549557E+01 0.47606595216E+01 0.47808789903E+01
 0.47875541828E+01 0.47808789903E+01 0.47606595216E+01 0.47296549557E+01 0.46908455700E+01
 0.46517706335E+01 0.46172856491E+01 0.45903095547E+01 0.45756427878E+01 0.45772784034E+01
 0.45952621841E+01 0.46279820616E+01 0.46776067834E+01 0.47337045025E+01 0.47899147164E+01
 0.48445581742E+01 0.48906237833E+01 0.49215867624E+01 0.56560716078E+01 0.56357956132E+01
 0.55774636339E+01 0.54855723669E+01 0.53680377875E+01 0.52352355748E+01 0.51033358702E+01
 0.49810837656E+01 0.48694310021E+01 0.47787780914E+01 0.47101097389E+01 0.46622942683E+01
 0.46346244801E+01 0.46228345312E+01 0.46216769419E+01 0.46266789856E+01 0.46348719562E+01
 0.46413493093E+01 0.46440705835E+01 0.46413493093E+01 0.46348719562E+01 0.46266789856E+01
 0.46216769419E+01 0.46228345312E+01 0.46346244801E+01 0.46622942683E+01 0.47101097389E+01
 0.47787780914E+01 0.48694310021E+01 0.49810837656E+01 0.51033358702E+01 0.52352355748E+01
 0.53680377875E+01 0.54855723669E+01 0.55774636339E+01 0.56357956132E+01 0.66748088391E+01
 0.66383775743E+01 0.65324906277E+01 0.63694617049E+01 0.61659303466E+01 0.59394754476E+01
 0.57011380654E+01 0.54673236528E+01 0.52569500075E+01 0.50714751067E+01 0.49165831570E+01
 0.47937958774E+01 0.46998692936E+01 0.46322554744E+01 0.45862923152E+01 0.45570814864E+01
 0.45391668634E+01 0.45301573153E+01 0.45271570878E+01 0.45301573153E+01 0.45391668634E+01
 0.45570814864E+01 0.45862923152E+01 0.46322554744E+01 0.46998692936E+01 0.47937958774E+01
 0.49165831570E+01 0.50714751067E+01 0.52569500075E+01 0.54673236528E+01 0.57011380654E+01
 0.59394754476E+01 0.61659303466E+01 0.63694617049E+01 0.65324906277E+01 0.66383775743E+01
 0.81431836204E+01 0.80838049031E+01 0.79122077065E+01 0.76436176005E+01 0.73020011602E+01
 0.69169784755E+01 0.65246111897E+01 0.61467827029E+01 0.57929165530E+01 0.54817766548E+01
 0.52167074542E+01 0.49979087216E+01 0.48243693709E+01 0.46904502857E+01 0.45912259092E+01
 0.45208820081E+01 0.44752647929E+01 0.44492935403E+01 0.44411978918E+01 0.44492935403E+01
 0.44752647929E+01 0.45208820081E+01 0.45912259092E+01 0.46904502857E+01 0.48243693709E+01
 0.49979087216E+01 0.52167074542E+01 0.54817766548E+01 0.57929165530E+01 0.61467827029E+01
 0.65246111897E+01 0.69169784755E+01 0.73020011602E+01 0.76436176005E+01 0.79122077065E+01
 0.80838049031E+01 0.10263157473E+02 0.10166180933E+02 0.98849706550E+01 0.94511537799E+01
 0.89093749376E+01 0.83076845361E+01 0.76833050113E+01 0.70785954645E+01 0.65308342125E+01
 0.60461443733E+01 0.56334813732E+01 0.52930705654E+01 0.50187910967E+01 0.48049978654E+01
 0.46431775630E+01 0.45263983849E+01 0.44473547154E+01 0.44023123091E+01 0.43873398221E+01
 0.44023123091E+01 0.44473547154E+01 0.45263983849E+01 0.46431775630E+01 0.48049978654E+01
 0.50187910967E+01 0.52930705654E+01 0.56334813732E+01 0.60461443733E+01 0.65308342125E+01
 0.70785954645E+01 0.76833050113E+01 0.83076845361E+01 0.89093749376E+01 0.94511537799E+01
 0.98849706550E+01 0.10166180933E+02 0.13264280177E+02 0.13119399212E+02 0.12700137911E+02
 0.12043054384E+02 0.11204278056E+02 0.10258122001E+02 0.92956150020E+01 0.83776585824E+01
 0.75371800562E+01 0.68103970135E+01 0.61990413351E+01 0.56974047879E+01 0.52969462172E+01
 0.49839157206E+01 0.47470888873E+01 0.45747147575E+01 0.44588296864E+01 0.43915639191E+01
 0.43699462786E+01 0.43915639191E+01 0.44588296864E+01 0.45747147575E+01 0.47470888873E+01
 0.49839157206E+01 0.52969462172E+01 0.56974047879E+01 0.61990413351E+01 0.68103970135E+01
 0.75371800562E+01 0.83776585824E+01 0.92956150020E+01 0.10258122001E+02 0.11204278056E+02
 0.12043054384E+02 0.12700137911E+02 0.13119399212E+02 0.18517550369E+02 0.18236783912E+02
 0.17432435752E+02 0.16212937294E+02 0.14729886306E+02 0.12955249829E+02 0.11531749270E+02
 0.10150325648E+02 0.89094834682E+01 0.78369415053E+01 0.69496609990E+01 0.62355785721E+01
 0.56710533035E+01 0.52355842080E+01 0.49073787581E+01 0.46703530582E+01 0.45098390784E+01
 0.44178238151E+01 0.43873392242E+01 0.44178238151E+01 0.45098390784E+01 0.46703530582E+01
 0.49073787581E+01 0.52355842080E+01 0.56710533035E+01 0.62355785721E+01 0.69496609990E+01
 0.78369415053E+01 0.89094834682E+01 0.10150325648E+02 0.11531749270E+02 0.12955249829E+02
 0.14729886306E+02 0.16212937294E+02 0.17432435752E+02 0.18236783912E+02 0.26368529584E+02
 0.25880465941E+02 0.24498594579E+02 0.22436688741E+02 0.19980650098E+02 0.17399017976E+02
 0.14908393192E+02 0.12532282974E+02 0.10739341194E+02 0.91992092495E+01 0.79342894251E+01
 0.69320681676E+01 0.61570821418E+01 0.55664878504E+01 0.51278747770E+01 0.48125838253E+01
 0.46019678009E+01 0.44803119686E+01 0.44411966893E+01 0.44803119686E+01 0.46019678009E+01
 0.48125838253E+01 0.51278747770E+01 0.55664878504E+01 0.61570821418E+01 0.69320681676E+01
 0.79342894251E+01 0.91992092495E+01 0.10739341194E+02 0.12532282974E+02 0.14908393192E+02
 0.17399017976E+02 0.19980650098E+02 0.22436688741E+02 0.24498594579E+02 0.25880465941E+02
 0.39083741514E+02 0.38216343309E+02 0.35770691133E+02 0.32175105107E+02 0.27970083142E+02
 0.23681710066E+02 0.19695830335E+02 0.16216095742E+02 0.13105343324E+02 0.10962731783E+02