unknown system                          
   1.00000000000000     
     2.478974    0.000000    0.000000
     0.000000    2.862472    2.024073
     0.000000   -1.431236    2.024073
   Ni
     2
Direct
  0.500000  0.500000  0.500000
  0.000000  0.000000  0.000000
 
   36   56   36
 0.10858202140E+04 0.18752311817E+04 0.43154155453E+03 0.66457251142E+03 0.66737237073E+03
 0.48368621386E+03 0.30473694739E+03 0.18216781721E+03 0.10816823036E+03 0.65544988521E+02
 0.41194796570E+02 0.27081278136E+02 0.18696926882E+02 0.13443380709E+02 0.10468539471E+02
 0.85634704745E+01 0.74381373550E+01 0.68596709971E+01 0.66830624216E+01 0.68596709971E+01
 0.74381373550E+01 0.85634704745E+01 0.10468539471E+02 0.13443380709E+02 0.18696926882E+02
 0.27081278136E+02 0.41194796570E+02 0.65544988521E+02 0.10816823036E+03 0.18216781721E+03
 0.30473694739E+03 0.48368621386E+03 0.66737237073E+03 0.66457251142E+03 0.43154155453E+03
 0.18752311817E+04 0.21574612371E+04 0.94732832906E+03 0.45225941113E+03 0.68413986459E+03
 0.65221038517E+03 0.46717255757E+03 0.29435907458E+03 0.17658255425E+03 0.10531157658E+03
 0.64093768021E+02 0.40442559950E+02 0.26678185870E+02 0.18472405389E+02 0.13323898643E+02
 0.10391508348E+02 0.85143341677E+01 0.74056126124E+01 0.68356703258E+01 0.66616550385E+01
 0.68356703258E+01 0.74056126124E+01 0.85143341677E+01 0.10391508348E+02 0.13323898643E+02
 0.18472405389E+02 0.26678185870E+02 0.40442559950E+02 0.64093768021E+02 0.10531157658E+03
 0.17658255425E+03 0.29435907458E+03 0.46717255757E+03 0.65221038517E+03 0.68413986459E+03
 0.45225941113E+03 0.94732832906E+03 0.44904525640E+03 0.42658604705E+03 0.59076824918E+03
 0.70311753846E+03 0.60144017302E+03 0.42042874730E+03 0.26559500795E+03 0.16107457425E+03
 0.97322494991E+02 0.59998569804E+02 0.38303291811E+02 0.25522776325E+02 0.17824800313E+02
 0.12975408499E+02 0.10166913267E+02 0.83709338539E+01 0.73104734280E+01 0.67652659038E+01
 0.65987712284E+01 0.67652659038E+01 0.73104734280E+01 0.83709338539E+01 0.10166913267E+02
 0.12975408499E+02 0.17824800313E+02 0.25522776325E+02 0.38303291811E+02 0.59998569804E+02
 0.97322494991E+02 0.16107457425E+03 0.26559500795E+03 0.42042874730E+03 0.60144017302E+03
 0.70311753846E+03 0.59076824918E+03 0.42658604705E+03 0.59094728992E+03 0.63547237880E+03
 0.69731255865E+03 0.65518973359E+03 0.51284808659E+03 0.35230403259E+03 0.22471766320E+03
 0.13888480724E+03 0.85718274209E+02 0.53950982675E+02 0.35092609712E+02 0.23763607525E+02
 0.16825100929E+02 0.12426536405E+02 0.98133848017E+01 0.81447658725E+01 0.71597319530E+01
 0.66530909013E+01 0.64983086502E+01 0.66530909013E+01 0.71597319530E+01 0.81447658725E+01
 0.98133848017E+01 0.12426536405E+02 0.16825100929E+02 0.23763607525E+02 0.35092609712E+02
 0.53950982675E+02 0.85718274209E+02 0.13888480724E+03 0.22471766320E+03 0.35230403259E+03
 0.51284808659E+03 0.65518973359E+03 0.69731255865E+03 0.63547237880E+03 0.69127669427E+03
 0.68303285857E+03 0.63761224015E+03 0.53582695886E+03 0.40207747876E+03 0.27617902987E+03
 0.17960957417E+03 0.11402649075E+03 0.72418439255E+02 0.46846207697E+02 0.31229964028E+02
 0.21601574666E+02 0.15186777934E+02 0.11721014331E+02 0.93592357293E+01 0.78533226817E+01
 0.69641532214E+01 0.65063634031E+01 0.63663915863E+01 0.65063634031E+01 0.69641532214E+01
 0.78533226817E+01 0.93592357293E+01 0.11721014331E+02 0.15186777934E+02 0.21601574666E+02
 0.31229964028E+02 0.46846207697E+02 0.72418439255E+02 0.11402649075E+03 0.17960957417E+03
 0.27617902987E+03 0.40207747876E+03 0.53582695886E+03 0.63761224015E+03 0.68303285857E+03
 0.56517738277E+03 0.54448552242E+03 0.48370355479E+03 0.39294853810E+03 0.29329884590E+03
 0.20482509747E+03 0.13707416116E+03 0.90006146591E+02 0.59168754031E+02 0.39541873581E+02
 0.27138652193E+02 0.19252330876E+02 0.13966123902E+02 0.10912277122E+02 0.88388294894E+01
 0.75179049293E+01 0.67370447702E+01 0.63342152153E+01 0.62108690311E+01 0.63342152153E+01
 0.67370447702E+01 0.75179049293E+01 0.88388294894E+01 0.10912277122E+02 0.13966123902E+02
 0.19252330876E+02 0.27138652193E+02 0.39541873581E+02 0.59168754031E+02 0.90006146591E+02
 0.13707416116E+03 0.20482509747E+03 0.29329884590E+03 0.39294853810E+03 0.48370355479E+03
 0.54448552242E+03 0.38923910736E+03 0.37325003424E+03 0.32920133107E+03 0.26793506845E+03
 0.20320747159E+03 0.14594261890E+03 0.10119638466E+03 0.69068099977E+02 0.47186999916E+02
 0.32686308742E+02 0.23164609708E+02 0.16903392847E+02 0.12669456904E+02 0.10057004087E+02
 0.82883665891E+01 0.71611112111E+01 0.64928542371E+01 0.61468876516E+01 0.60406967956E+01
 0.61468876516E+01 0.64928542371E+01 0.71611112111E+01 0.82883665891E+01 0.10057004087E+02
 0.12669456904E+02 0.16903392847E+02 0.23164609708E+02 0.32686308742E+02 0.47186999916E+02
 0.69068099977E+02 0.10119638466E+03 0.14594261890E+03 0.20320747159E+03 0.26793506845E+03
 0.32920133107E+03 0.37325003424E+03 0.24827612517E+03 0.23858005396E+03 0.21210800471E+03
 0.17553275726E+03 0.13667403995E+03 0.10158614877E+03 0.73271631387E+02 0.52117686275E+02
 0.37072270311E+02 0.26659965070E+02 0.19539971699E+02 0.14408696993E+02 0.11377948293E+02
 0.92086104949E+01 0.77417838154E+01 0.68044151399E+01 0.62457815635E+01 0.59548877176E+01
 0.58652616400E+01 0.59548877176E+01 0.62457815635E+01 0.68044151399E+01 0.77417838154E+01
 0.92086104949E+01 0.11377948293E+02 0.14408696993E+02 0.19539971699E+02 0.26659965070E+02
 0.37072270311E+02 0.52117686275E+02 0.73271631387E+02 0.10158614877E+03 0.13667403995E+03
 0.17553275726E+03 0.21210800471E+03 0.23858005396E+03 0.15416638320E+03 0.14878509249E+03
 0.13402535171E+03 0.11339317746E+03 0.91009900410E+02 0.70176100573E+02 0.52709965054E+02
 0.39083472153E+02 0.28941569231E+02 0.21605905432E+02 0.16388090439E+02 0.12613350482E+02
 0.10160896419E+02 0.84117535880E+01 0.72274294994E+01 0.64662023903E+01 0.60085991278E+01
 0.57682061682E+01 0.56937212293E+01 0.57682061682E+01 0.60085991278E+01 0.64662023903E+01
 0.72274294994E+01 0.84117535880E+01 0.10160896419E+02 0.12613350482E+02 0.16388090439E+02
 0.21605905432E+02 0.28941569231E+02 0.39083472153E+02 0.52709965054E+02 0.70176100573E+02
 0.91009900410E+02 0.11339317746E+03 0.13402535171E+03 0.14878509249E+03 0.95978112293E+02
 0.93081503819E+02 0.85066799237E+02 0.73668684967E+02 0.60976541697E+02 0.48752776362E+02
 0.38084107626E+02 0.29386528632E+02 0.22617860730E+02 0.17512748691E+02 0.13556764367E+02
 0.10992561099E+02 0.90694948071E+01 0.76987380558E+01 0.67660032144E+01 0.61605315087E+01
 0.57918309614E+01 0.55956980415E+01 0.55344459414E+01 0.55956980415E+01 0.57918309614E+01
 0.61605315087E+01 0.67660032144E+01 0.76987380558E+01 0.90694948071E+01 0.10992561099E+02
 0.13556764367E+02 0.17512748691E+02 0.22617860730E+02 0.29386528632E+02 0.38084107626E+02
 0.48752776362E+02 0.60976541697E+02 0.73668684967E+02 0.85066799237E+02 0.93081503819E+02
 0.61038500981E+02 0.59478840774E+02 0.55124498561E+02 0.48814012325E+02 0.41593094119E+02
 0.34395724082E+02 0.27860637090E+02 0.22306509703E+02 0.17804725321E+02 0.14035748468E+02
 0.11551362007E+02 0.95963314021E+01 0.81340334054E+01 0.70882802005E+01 0.63699512655E+01
 0.58967147354E+01 0.56033649462E+01 0.54446955076E+01 0.53946312778E+01 0.54446955076E+01
 0.56033649462E+01 0.58967147354E+01 0.63699512655E+01 0.70882802005E+01 0.81340334054E+01
 0.95963314021E+01 0.11551362007E+02 0.14035748468E+02 0.17804725321E+02 0.22306509703E+02
 0.27860637090E+02 0.34395724082E+02 0.41593094119E+02 0.48814012325E+02 0.55124498561E+02
 0.59478840774E+02 0.40090602022E+02 0.39235405213E+02 0.36825408881E+02 0.33269178354E+02
 0.29092334164E+02 0.24793684521E+02 0.20749953452E+02 0.17185274211E+02 0.13956226704E+02
 0.11725641355E+02 0.98858572433E+01 0.84443782387E+01 0.73647254545E+01 0.65865232056E+01
 0.60441703319E+01 0.56796321841E+01 0.54484745838E+01 0.53208635280E+01 0.52801006033E+01
 0.53208635280E+01 0.54484745838E+01 0.56796321841E+01 0.60441703319E+01 0.65865232056E+01
 0.73647254545E+01 0.84443782387E+01 0.98858572433E+01 0.11725641355E+02 0.13956226704E+02
 0.17185274211E+02 0.20749953452E+02 0.24793684521E+02 0.29092334164E+02 0.33269178354E+02
 0.36825408881E+02 0.39235405213E+02 0.27321085387E+02 0.26839056802E+02 0.25467741508E+02
 0.23411285453E+02 0.20940276973E+02 0.18327725179E+02 0.15796769758E+02 0.13325308007E+02
 0.11474041034E+02 0.98729159843E+01 0.85593394260E+01 0.75305001740E+01 0.67554540527E+01
 0.61896860911E+01 0.57876087500E+01 0.55105565145E+01 0.53301452739E+01 0.52282493211E+01
 0.51952648644E+01 0.52282493211E+01 0.53301452739E+01 0.55105565145E+01 0.57876087500E+01
 0.61896860911E+01 0.67554540527E+01 0.75305001740E+01 0.85593394260E+01 0.98729159843E+01
 0.11474041034E+02 0.13325308007E+02 0.15796769758E+02 0.18327725179E+02 0.20940276973E+02
 0.23411285453E+02 0.25467741508E+02 0.26839056802E+02 0.19334864579E+02 0.19054378620E+02
 0.18251963685E+02 0.17033028230E+02 0.15542400833E+02 0.13706991816E+02 0.12247554858E+02
 0.10835062945E+02 0.95507459757E+01 0.84461117802E+01 0.75413204836E+01 0.68301463541E+01
 0.62891131197E+01 0.58874681574E+01 0.55952560585E+01 0.53882154081E+01 0.52495613142E+01
 0.51694444897E+01 0.51431772761E+01 0.51694444897E+01 0.52495613142E+01 0.53882154081E+01
 0.55952560585E+01 0.58874681574E+01 0.62891131197E+01 0.68301463541E+01 0.75413204836E+01
 0.84461117802E+01 0.95507459757E+01 0.10835062945E+02 0.12247554858E+02 0.13706991816E+02
 0.15542400833E+02 0.17033028230E+02 0.18251963685E+02 0.19054378620E+02 0.13934967336E+02
 0.13788091760E+02 0.13361326367E+02 0.12694521457E+02 0.11848385301E+02 0.10896334440E+02
 0.99143424299E+01 0.89705635431E+01 0.81169260623E+01 0.73845740563E+01 0.67839560749E+01
 0.63089269677E+01 0.59431023606E+01 0.56663846459E+01 0.54600740792E+01 0.53098447616E+01
 0.52066119557E+01 0.51457770636E+01 0.51256207937E+01 0.51457770636E+01 0.52066119557E+01
 0.53098447616E+01 0.54600740792E+01 0.56663846459E+01 0.59431023606E+01 0.63089269677E+01
 0.67839560749E+01 0.73845740563E+01 0.81169260623E+01 0.89705635431E+01 0.99143424299E+01
 0.10896334440E+02 0.11848385301E+02 0.12694521457E+02 0.13361326367E+02 0.13788091760E+02
 0.10826285882E+02 0.10730028333E+02 0.10450898695E+02 0.10016398455E+02 0.94678048250E+01
 0.88540485508E+01 0.82245897744E+01 0.76226451343E+01 0.70801431542E+01 0.66153856746E+01
 0.62336406265E+01 0.59300745975E+01 0.56938941588E+01 0.55124770871E+01 0.53745646534E+01
 0.52720440924E+01 0.52002989629E+01 0.51574661588E+01 0.51431805861E+01 0.51574661588E+01
 0.52002989629E+01 0.52720440924E+01 0.53745646534E+01 0.55124770871E+01 0.56938941588E+01
 0.59300745975E+01 0.62336406265E+01 0.66153856746E+01 0.70801431542E+01 0.76226451343E+01
 0.82245897744E+01 0.88540485508E+01 0.94678048250E+01 0.10016398455E+02 0.10450898695E+02
 0.10730028333E+02 0.86330643165E+01 0.85733098206E+01 0.84003232182E+01 0.81319019379E+01
 0.77944699891E+01 0.74188965273E+01 0.70358530897E+01 0.66716267024E+01 0.63451941628E+01
 0.60670359379E+01 0.58397040719E+01 0.56597241888E+01 0.55201602791E+01 0.54131431705E+01
 0.53318050673E+01 0.52713091316E+01 0.52289646731E+01 0.52036951077E+01 0.51952716306E+01
 0.52036951077E+01 0.52289646731E+01 0.52713091316E+01 0.53318050673E+01 0.54131431705E+01
 0.55201602791E+01 0.56597241888E+01 0.58397040719E+01 0.60670359379E+01 0.63451941628E+01
 0.66716267024E+01 0.70358530897E+01 0.74188965273E+01 0.77944699891E+01 0.81319019379E+01
 0.84003232182E+01 0.85733098206E+01 0.71340677130E+01 0.70990334068E+01 0.69978177843E+01
 0.68413952586E+01 0.66459289027E+01 0.64300974420E+01 0.62122250908E+01 0.60077887446E+01
 0.58277506253E+01 0.56779426748E+01 0.55594635687E+01 0.54698208856E+01 0.54044265554E+01
 0.53580462056E+01 0.53258897924E+01 0.53041900614E+01 0.52903118441E+01 0.52825888888E+01
 0.52801110957E+01 0.52825888888E+01 0.52903118441E+01 0.53041900614E+01 0.53258897924E+01
 0.53580462056E+01 0.54044265554E+01 0.54698208856E+01 0.55594635687E+01 0.56779426748E+01
 0.58277506253E+01 0.60077887446E+01 0.62122250908E+01 0.64300974420E+01 0.66459289027E+01
 0.68413952586E+01 0.69978177843E+01 0.70990334068E+01 0.61245138503E+01 0.61054474721E+01
 0.60505892889E+01 0.59665275481E+01 0.58629075839E+01 0.57507832110E+01 0.56408870062E+01
 0.55421685331E+01 0.54608445736E+01 0.54000607041E+01 0.53601128851E+01 0.53390569473E+01
 0.53334759207E+01 0.53391953269E+01 0.53518240520E+01 0.53671171801E+01 0.53812511530E+01
 0.53911153901E+01 0.53946458485E+01 0.53911153901E+01 0.53812511530E+01 0.53671171801E+01
 0.53518240520E+01 0.53391953269E+01 0.53334759207E+01 0.53390569473E+01 0.53601128851E+01
 0.54000607041E+01 0.54608445736E+01 0.55421685331E+01 0.56408870062E+01 0.57507832110E+01
 0.58629075839E+01 0.59665275481E+01 0.60505892889E+01 0.61054474721E+01 0.54410920539E+01
 0.54320547570E+01 0.54063561127E+01 0.53679666579E+01 0.53226777295E+01 0.52770865902E+01
 0.52375452480E+01 0.52092893252E+01 0.51958785534E+01 0.51989768460E+01 0.52184117926E+01
 0.52523988281E+01 0.52978071337E+01 0.53503941820E+01 0.54050313266E+01 0.54560282215E+01
 0.54976675189E+01 0.55249585171E+01 0.55344649651E+01 0.55249585171E+01 0.54976675189E+01
 0.54560282215E+01 0.54050313266E+01 0.53503941820E+01 0.52978071337E+01 0.52523988281E+01
 0.52184117926E+01 0.51989768460E+01 0.51958785534E+01 0.52092893252E+01 0.52375452480E+01
 0.52770865902E+01 0.53226777295E+01 0.53679666579E+01 0.54063561127E+01 0.54320547570E+01
 0.49672205049E+01 0.49644580356E+01 0.49570611954E+01 0.49475341377E+01 0.49395320808E+01
 0.49372171421E+01 0.49445882743E+01 0.49649252398E+01 0.50004158717E+01 0.50519531551E+01
 0.51190378166E+01 0.51997150978E+01 0.52905051451E+01 0.53863540240E+01 0.54807220408E+01
 0.55659789772E+01 0.56342184941E+01 0.56784278790E+01 0.56937450342E+01 0.56784278790E+01
 0.56342184941E+01 0.55659789772E+01 0.54807220408E+01 0.53863540240E+01 0.52905051451E+01
 0.51997150978E+01 0.51190378166E+01 0.50519531551E+01 0.50004158717E+01 0.49649252398E+01
 0.49445882743E+01 0.49372171421E+01 0.49395320808E+01 0.49475341377E+01 0.49570611954E+01
 0.49644580356E+01 0.46269113724E+01 0.46281766032E+01 0.46325836307E+01 0.46418601696E+01
 0.46585504936E+01 0.46855838155E+01 0.47258084600E+01 0.47815838211E+01 0.48544658284E+01
 0.49449554434E+01 0.50522531535E+01 0.51739859799E+01 0.53059280751E+01 0.54418081864E+01
 0.55733723086E+01 0.56908973087E+01 0.57842626874E+01 0.58444742135E+01 0.58652904359E+01
 0.58444742135E+01 0.57842626874E+01 0.56908973087E+01 0.55733723086E+01 0.54418081864E+01
 0.53059280751E+01 0.51739859799E+01 0.50522531535E+01 0.49449554434E+01 0.48544658284E+01
 0.47815838211E+01 0.47258084600E+01 0.46855838155E+01 0.46585504936E+01 0.46418601696E+01
 0.46325836307E+01 0.46281766032E+01 0.43745455735E+01 0.43785414366E+01 0.43909964074E+01
 0.44132439438E+01 0.44472826768E+01 0.44954689491E+01 0.45601566983E+01 0.46433420157E+01
 0.47463323566E+01 0.48694132143E+01 0.50114733869E+01 0.51695856984E+01 0.53386033538E+01
 0.55109041873E+01 0.56764790693E+01 0.58235725207E+01 0.59399796932E+01 0.60148697686E+01
 0.60407306106E+01 0.60148697686E+01 0.59399796932E+01 0.58235725207E+01 0.56764790693E+01
 0.55109041873E+01 0.53386033538E+01 0.51695856984E+01 0.50114733869E+01 0.48694132143E+01
 0.47463323566E+01 0.46433420157E+01 0.45601566983E+01 0.44954689491E+01 0.44472826768E+01
 0.44132439438E+01 0.43909964074E+01 0.43785414366E+01 0.41846501791E+01 0.41906255219E+01
 0.42089431164E+01 0.42407335727E+01 0.42877301552E+01 0.43520392943E+01 0.44358363683E+01
 0.45410162192E+01 0.46688126834E+01 0.48193755050E+01 0.49912892478E+01 0.51810525981E+01
 0.53825985857E+01 0.55870099557E+01 0.57826461395E+01 0.59559019859E+01 0.60927021914E+01
 0.61805827575E+01 0.62109076663E+01 0.61805827575E+01 0.60927021914E+01 0.59559019859E+01
 0.57826461395E+01 0.55870099557E+01 0.53825985857E+01 0.51810525981E+01 0.49912892478E+01
 0.48193755050E+01 0.46688126834E+01 0.45410162192E+01 0.44358363683E+01 0.43520392943E+01
 0.42877301552E+01 0.42407335727E+01 0.42089431164E+01 0.41906255219E+01 0.40433632553E+01
 0.40508430742E+01 0.40736284988E+01 0.41127313250E+01 0.41697398244E+01 0.42466445584E+01
 0.43455682391E+01 0.44684061181E+01 0.46163895700E+01 0.47895800136E+01 0.49863012043E+01
 0.52025438405E+01 0.54314328933E+01 0.56629248794E+01 0.58839691222E+01 0.60793677532E+01
 0.62334404469E+01 0.63323271620E+01 0.63664345955E+01 0.63323271620E+01 0.62334404469E+01
 0.60793677532E+01 0.58839691222E+01 0.56629248794E+01 0.54314328933E+01 0.52025438405E+01
 0.49863012043E+01 0.47895800136E+01 0.46163895700E+01 0.44684061181E+01 0.43455682391E+01
 0.42466445584E+01 0.41697398244E+01 0.41127313250E+01 0.40736284988E+01 0.40508430742E+01
 0.39423426491E+01 0.39509667957E+01 0.39771521987E+01 0.40218261346E+01 0.40864783308E+01
 0.41730299015E+01 0.42835882919E+01 0.44200767103E+01 0.45837497567E+01 0.47746180467E+01
 0.49908099668E+01 0.52279178400E+01 0.54784254435E+01 0.57313915217E+01 0.59726361544E+01
 0.61856787989E+01 0.63535394297E+01 0.64612228213E+01 0.64983553472E+01 0.64612228213E+01
 0.63535394297E+01 0.61856787989E+01 0.59726361544E+01 0.57313915217E+01 0.54784254435E+01
 0.52279178400E+01 0.49908099668E+01 0.47746180467E+01 0.45837497567E+01 0.44200767103E+01
 0.42835882919E+01 0.41730299015E+01 0.40864783308E+01 0.40218261346E+01 0.39771521987E+01
 0.39509667957E+01 0.38754157618E+01 0.38848578671E+01 0.39134717474E+01 0.39621200695E+01
 0.40322181461E+01 0.41256359026E+01 0.42444720873E+01 0.43906766975E+01 0.45655320667E+01
 0.47690255479E+01 0.49991570674E+01 0.52512410312E+01 0.55173055239E+01 0.57857664843E+01
 0.60416296528E+01 0.62674797504E+01 0.64453772970E+01 0.65594784787E+01 0.65988207193E+01
 0.65594784787E+01 0.64453772970E+01 0.62674797504E+01 0.60416296528E+01 0.57857664843E+01
 0.55173055239E+01 0.52512410312E+01 0.49991570674E+01 0.47690255479E+01 0.45655320667E+01
 0.43906766975E+01 0.42444720873E+01 0.41256359026E+01 0.40322181461E+01 0.39621200695E+01
 0.39134717474E+01 0.38848578671E+01 0.38375842134E+01 0.38475203211E+01 0.38775994168E+01
 0.39286415530E+01 0.40020129393E+01 0.40995491290E+01 0.42233417402E+01 0.43753575973E+01
 0.45568995761E+01 0.47679471774E+01 0.50064294237E+01 0.52674987470E+01 0.55429135814E+01
 0.58207076381E+01 0.60853995148E+01 0.63190083471E+01 0.65030050275E+01 0.66210159520E+01
 0.66617062710E+01 0.66210159520E+01 0.65030050275E+01 0.63190083471E+01 0.60853995148E+01
 0.58207076381E+01 0.55429135814E+01 0.52674987470E+01 0.50064294237E+01 0.47679471774E+01
 0.45568995761E+01 0.43753575973E+01 0.42233417402E+01 0.40995491290E+01 0.40020129393E+01
 0.39286415530E+01 0.38775994168E+01 0.38475203211E+01 0.38253903503E+01 0.38354918904E+01
 0.38660613543E+01 0.39179037616E+01 0.39923679743E+01 0.40912772254E+01 0.42167201878E+01
 0.43706692213E+01 0.45544346143E+01 0.47679943093E+01 0.50092548451E+01 0.52733156446E+01
 0.55518462155E+01 0.58327539844E+01 0.61003960602E+01 0.63366026547E+01 0.65226455909E+01
 0.66419704486E+01 0.66831142456E+01 0.66419704486E+01 0.65226455909E+01 0.63366026547E+01
 0.61003960602E+01 0.58327539844E+01 0.55518462155E+01 0.52733156446E+01 0.50092548451E+01
 0.47679943093E+01 0.45544346143E+01 0.43706692213E+01 0.42167201878E+01 0.40912772254E+01
 0.39923679743E+01 0.39179037616E+01 0.38660613543E+01 0.38354918904E+01 0.38375842134E+01
 0.38475203211E+01 0.38775994168E+01 0.39286415530E+01 0.40020129393E+01 0.40995491290E+01
 0.42233417402E+01 0.43753575973E+01 0.45568995761E+01 0.47679471774E+01 0.50064294237E+01
 0.52674987470E+01 0.55429135814E+01 0.58207076381E+01 0.60853995148E+01 0.63190083471E+01
 0.65030050275E+01 0.66210159520E+01 0.66617062710E+01 0.66210159520E+01 0.65030050275E+01
 0.63190083471E+01 0.60853995148E+01 0.58207076381E+01 0.55429135814E+01 0.52674987470E+01
 0.50064294237E+01 0.47679471774E+01 0.45568995761E+01 0.43753575973E+01 0.42233417402E+01
 0.40995491290E+01 0.40020129393E+01 0.39286415530E+01 0.38775994168E+01 0.38475203211E+01
 0.38754157618E+01 0.38848578671E+01 0.39134717474E+01 0.39621200695E+01 0.40322181461E+01
 0.41256359026E+01 0.42444720873E+01 0.43906766975E+01 0.45655320667E+01 0.47690255479E+01
 0.49991570674E+01 0.52512410312E+01 0.55173055239E+01 0.57857664843E+01 0.60416296528E+01
 0.62674797504E+01 0.64453772970E+01 0.65594784787E+01 0.65988207193E+01 0.65594784787E+01
 0.64453772970E+01 0.62674797504E+01 0.60416296528E+01 0.57857664843E+01 0.55173055239E+01
 0.52512410312E+01 0.49991570674E+01 0.47690255479E+01 0.45655320667E+01 0.43906766975E+01
 0.42444720873E+01 0.41256359026E+01 0.40322181461E+01 0.39621200695E+01 0.39134717474E+01
 0.38848578671E+01 0.39423426491E+01 0.39509667957E+01 0.39771521987E+01 0.40218261346E+01
 0.40864783308E+01 0.41730299015E+01 0.42835882919E+01 0.44200767103E+01 0.45837497567E+01
 0.47746180467E+01 0.49908099668E+01 0.52279178400E+01 0.54784254435E+01 0.57313915217E+01
 0.59726361544E+01 0.61856787989E+01 0.63535394297E+01 0.64612228213E+01 0.64983553472E+01
 0.64612228213E+01 0.63535394297E+01 0.61856787989E+01 0.59726361544E+01 0.57313915217E+01
 0.54784254435E+01 0.52279178400E+01 0.49908099668E+01 0.47746180467E+01 0.45837497567E+01
 0.44200767103E+01 0.42835882919E+01 0.41730299015E+01 0.40864783308E+01 0.40218261346E+01
 0.39771521987E+01 0.39509667957E+01 0.40433632553E+01 0.40508430742E+01 0.40736284988E+01
 0.41127313250E+01 0.41697398244E+01 0.42466445584E+01 0.43455682391E+01 0.44684061181E+01
 0.46163895700E+01 0.47895800136E+01 0.49863012043E+01 0.52025438405E+01 0.54314328933E+01
 0.56629248794E+01 0.58839691222E+01 0.60793677532E+01 0.62334404469E+01 0.63323271620E+01
 0.63664345955E+01 0.63323271620E+01 0.62334404469E+01 0.60793677532E+01 0.58839691222E+01
 0.56629248794E+01 0.54314328933E+01 0.52025438405E+01 0.49863012043E+01 0.47895800136E+01
 0.46163895700E+01 0.44684061181E+01 0.43455682391E+01 0.42466445584E+01 0.41697398244E+01
 0.41127313250E+01 0.40736284988E+01 0.40508430742E+01 0.41846501791E+01 0.41906255219E+01
 0.42089431164E+01 0.42407335727E+01 0.42877301552E+01 0.43520392943E+01 0.44358363683E+01
 0.45410162192E+01 0.46688126834E+01 0.48193755050E+01 0.49912892478E+01 0.51810525981E+01
 0.53825985857E+01 0.55870099557E+01 0.57826461395E+01 0.59559019859E+01 0.60927021914E+01
 0.61805827575E+01 0.62109076663E+01 0.61805827575E+01 0.60927021914E+01 0.59559019859E+01
 0.57826461395E+01 0.55870099557E+01 0.53825985857E+01 0.51810525981E+01 0.49912892478E+01
 0.48193755050E+01 0.46688126834E+01 0.45410162192E+01 0.44358363683E+01 0.43520392943E+01
 0.42877301552E+01 0.42407335727E+01 0.42089431164E+01 0.41906255219E+01 0.43745455735E+01
 0.43785414366E+01 0.43909964074E+01 0.44132439438E+01 0.44472826768E+01 0.44954689491E+01
 0.45601566983E+01 0.46433420157E+01 0.47463323566E+01 0.48694132143E+01 0.50114733869E+01
 0.51695856984E+01 0.53386033538E+01 0.55109041873E+01 0.56764790693E+01 0.58235725207E+01
 0.59399796932E+01 0.60148697686E+01 0.60407306106E+01 0.60148697686E+01 0.59399796932E+01
 0.58235725207E+01 0.56764790693E+01 0.55109041873E+01 0.53386033538E+01 0.51695856984E+01
 0.50114733869E+01 0.48694132143E+01 0.47463323566E+01 0.46433420157E+01 0.45601566983E+01
 0.44954689491E+01 0.44472826768E+01 0.44132439438E+01 0.43909964074E+01 0.43785414366E+01
 0.46269113724E+01 0.46281766032E+01 0.46325836307E+01 0.46418601696E+01 0.46585504936E+01
 0.46855838155E+01 0.47258084600E+01 0.47815838211E+01 0.48544658284E+01 0.49449554434E+01
 0.50522531535E+01 0.51739859799E+01 0.53059280751E+01 0.54418081864E+01 0.55733723086E+01
 0.56908973087E+01 0.57842626874E+01 0.58444742135E+01 0.58652904359E+01 0.58444742135E+01
 0.57842626874E+01 0.56908973087E+01 0.55733723086E+01 0.54418081864E+01 0.53059280751E+01
 0.51739859799E+01 0.50522531535E+01 0.49449554434E+01 0.48544658284E+01 0.47815838211E+01
 0.47258084600E+01 0.46855838155E+01 0.46585504936E+01 0.46418601696E+01 0.46325836307E+01
 0.46281766032E+01 0.49672205049E+01 0.49644580356E+01 0.49570611954E+01 0.49475341377E+01
 0.49395320808E+01 0.49372171421E+01 0.49445882743E+01 0.49649252398E+01 0.50004158717E+01
 0.50519531551E+01 0.51190378166E+01 0.51997150978E+01 0.52905051451E+01 0.53863540240E+01
 0.54807220408E+01 0.55659789772E+01 0.56342184941E+01 0.56784278790E+01 0.56937450342E+01
 0.56784278790E+01 0.56342184941E+01 0.55659789772E+01 0.54807220408E+01 0.53863540240E+01
 0.52905051451E+01 0.51997150978E+01 0.51190378166E+01 0.50519531551E+01 0.50004158717E+01
 0.49649252398E+01 0.49445882743E+01 0.49372171421E+01 0.49395320808E+01 0.49475341377E+01
 0.49570611954E+01 0.49644580356E+01 0.54410920539E+01 0.54320547570E+01 0.54063561127E+01
 0.53679666579E+01 0.53226777295E+01 0.52770865902E+01 0.52375452480E+01 0.52092893252E+01
 0.51958785534E+01 0.51989768460E+01 0.52184117926E+01 0.52523988281E+01 0.52978071337E+01
 0.53503941820E+01 0.54050313266E+01 0.54560282215E+01 0.54976675189E+01 0.55249585171E+01
 0.55344649651E+01 0.55249585171E+01 0.54976675189E+01 0.54560282215E+01 0.54050313266E+01
 0.53503941820E+01 0.52978071337E+01 0.52523988281E+01 0.52184117926E+01 0.51989768460E+01
 0.51958785534E+01 0.52092893252E+01 0.52375452480E+01 0.52770865902E+01 0.53226777295E+01
 0.53679666579E+01 0.54063561127E+01 0.54320547570E+01 0.61245138503E+01 0.61054474721E+01
 0.60505892889E+01 0.59665275481E+01 0.58629075839E+01 0.57507832110E+01 0.56408870062E+01
 0.55421685331E+01 0.54608445736E+01 0.54000607041E+01 0.53601128851E+01 0.53390569473E+01
 0.53334759207E+01 0.53391953269E+01 0.53518240520E+01 0.53671171801E+01 0.53812511530E+01
 0.53911153901E+01 0.53946458485E+01 0.53911153901E+01 0.53812511530E+01 0.53671171801E+01
 0.53518240520E+01 0.53391953269E+01 0.53334759207E+01 0.53390569473E+01 0.53601128851E+01
 0.54000607041E+01 0.54608445736E+01 0.55421685331E+01 0.56408870062E+01 0.57507832110E+01
 0.58629075839E+01 0.59665275481E+01 0.60505892889E+01 0.61054474721E+01 0.71340677130E+01
 0.70990334068E+01 0.69978177843E+01 0.68413952586E+01 0.66459289027E+01 0.64300974420E+01
 0.62122250908E+01 0.60077887446E+01 0.58277506253E+01 0.56779426748E+01 0.55594635687E+01
 0.54698208856E+01 0.54044265554E+01 0.53580462056E+01 0.53258897924E+01 0.53041900614E+01
 0.52903118441E+01 0.52825888888E+01 0.52801110957E+01 0.52825888888E+01 0.52903118441E+01
 0.53041900614E+01 0.53258897924E+01 0.53580462056E+01 0.54044265554E+01 0.54698208856E+01
 0.55594635687E+01 0.56779426748E+01 0.58277506253E+01 0.60077887446E+01 0.62122250908E+01
 0.64300974420E+01 0.66459289027E+01 0.68413952586E+01 0.69978177843E+01 0.70990334068E+01
 0.86330643165E+01 0.85733098206E+01 0.84003232182E+01 0.81319019379E+01 0.77944699891E+01
 0.74188965273E+01 0.70358530897E+01 0.66716267024E+01 0.63451941628E+01 0.60670359379E+01
 0.58397040719E+01 0.56597241888E+01 0.55201602791E+01 0.54131431705E+01 0.53318050673E+01
 0.52713091316E+01 0.52289646731E+01 0.52036951077E+01 0.51952716306E+01 0.52036951077E+01
 0.52289646731E+01 0.52713091316E+01 0.53318050673E+01 0.54131431705E+01 0.55201602791E+01
 0.56597241888E+01 0.58397040719E+01 0.60670359379E+01 0.63451941628E+01 0.66716267024E+01
 0.70358530897E+01 0.74188965273E+01 0.77944699891E+01 0.81319019379E+01 0.84003232182E+01
 0.85733098206E+01 0.10826285882E+02 0.10730028333E+02 0.10450898695E+02 0.10016398455E+02
 0.94678048250E+01 0.88540485508E+01 0.82245897744E+01 0.76226451343E+01 0.70801431542E+01
 0.66153856746E+01 0.62336406265E+01 0.59300745975E+01 0.56938941588E+01 0.55124770871E+01
 0.53745646534E+01 0.52720440924E+01 0.52002989629E+01 0.51574661588E+01 0.51431805861E+01
 0.51574661588E+01 0.52002989629E+01 0.52720440924E+01 0.53745646534E+01 0.55124770871E+01
 0.56938941588E+01 0.59300745975E+01 0.62336406265E+01 0.66153856746E+01 0.70801431542E+01
 0.76226451343E+01 0.82245897744E+01 0.88540485508E+01 0.94678048250E+01 0.10016398455E+02
 0.10450898695E+02 0.10730028333E+02 0.13934967336E+02 0.13788091760E+02 0.13361326367E+02
 0.12694521457E+02 0.11848385301E+02 0.10896334440E+02 0.99143424299E+01 0.89705635431E+01
 0.81169260623E+01 0.73845740563E+01 0.67839560749E+01 0.63089269677E+01 0.59431023606E+01
 0.56663846459E+01 0.54600740792E+01 0.53098447616E+01 0.52066119557E+01 0.51457770636E+01
 0.51256207937E+01 0.51457770636E+01 0.52066119557E+01 0.53098447616E+01 0.54600740792E+01
 0.56663846459E+01 0.59431023606E+01 0.63089269677E+01 0.67839560749E+01 0.73845740563E+01
 0.81169260623E+01 0.89705635431E+01 0.99143424299E+01 0.10896334440E+02 0.11848385301E+02
 0.12694521457E+02 0.13361326367E+02 0.13788091760E+02 0.19334864579E+02 0.19054378620E+02
 0.18251963685E+02 0.17033028230E+02 0.15542400833E+02 0.13706991816E+02 0.12247554858E+02
 0.10835062945E+02 0.95507459757E+01 0.84461117802E+01 0.75413204836E+01 0.68301463541E+01
 0.62891131197E+01 0.58874681574E+01 0.55952560585E+01 0.53882154081E+01 0.52495613142E+01
 0.51694444897E+01 0.51431772761E+01 0.51694444897E+01 0.52495613142E+01 0.53882154081E+01
 0.55952560585E+01 0.58874681574E+01 0.62891131197E+01 0.68301463541E+01 0.75413204836E+01
 0.84461117802E+01 0.95507459757E+01 0.10835062945E+02 0.12247554858E+02 0.13706991816E+02
 0.15542400833E+02 0.17033028230E+02 0.18251963685E+02 0.19054378620E+02 0.27321085387E+02
 0.26839056802E+02 0.25467741508E+02 0.23411285453E+02 0.20940276973E+02 0.18327725179E+02
 0.15796769758E+02 0.13325308007E+02 0.11474041034E+02 0.98729159843E+01 0.85593394260E+01
 0.75305001740E+01 0.67554540527E+01 0.61896860911E+01 0.57876087500E+01 0.55105565145E+01
 0.53301452739E+01 0.52282493211E+01 0.51952648644E+01 0.52282493211E+01 0.53301452739E+01
 0.55105565145E+01 0.57876087500E+01 0.61896860911E+01 0.67554540527E+01 0.75305001740E+01
 0.85593394260E+01 0.98729159843E+01 0.11474041034E+02 0.13325308007E+02 0.15796769758E+02
 0.18327725179E+02 0.20940276973E+02 0.23411285453E+02 0.25467741508E+02 0.26839056802E+02
 0.40090602022E+02 0.39235405213E+02 0.36825408881E+02 0.33269178354E+02 0.29092334164E+02
 0.24793684521E+02 0.20749953452E+02 0.17185274211E+02 0.13956226704E+02 0.11725641355E+02