unknown system                          
   1.00000000000000     
     2.478974    0.000000    0.000000
     0.000000    2.862472    2.024073
     0.000000   -1.431236    2.024073
   Ni
     2
Direct
  0.500000  0.500000  0.500000
  0.000000  0.000000  0.000000
 
   36   56   36
 0.28261222126E+07 0.21585117083E+05 0.42660977764E+04 0.58852846860E+03 0.17342075695E+03
 0.97515426309E+02 0.54222379311E+02 0.27521381130E+02 0.13153037757E+02 0.60729611683E+01
 0.27505275560E+01 0.12333550419E+01 0.54971595287E+00 0.24494898630E+00 0.10900723972E+00
 0.48966756416E-01 0.22458519919E-01 0.11671226757E-01 0.86125318339E-02 0.11671226757E-01
 0.22458519919E-01 0.48966756416E-01 0.10900723972E+00 0.24494898630E+00 0.54971595287E+00
 0.12333550419E+01 0.27505275560E+01 0.60729611683E+01 0.13153037757E+02 0.27521381130E+02
 0.54222379311E+02 0.97515426309E+02 0.17342075695E+03 0.58852846860E+03 0.42660977764E+04
 0.21585117083E+05 0.24266309167E+05 0.13441447452E+05 0.28778189701E+04 0.46743875988E+03
 0.16155419099E+03 0.93263647997E+02 0.51897613257E+02 0.26388064851E+02 0.12648325136E+02
 0.58586662241E+01 0.26613166657E+01 0.11966109361E+01 0.53466225521E+00 0.23870883161E+00
 0.10645547852E+00 0.47875504275E-01 0.22015367319E-01 0.11437903630E-01 0.84711197410E-02
 0.11437903630E-01 0.22015367319E-01 0.47875504275E-01 0.10645547852E+00 0.23870883161E+00
 0.53466225521E+00 0.11966109361E+01 0.26613166657E+01 0.58586662241E+01 0.12648325136E+02
 0.26388064851E+02 0.51897613257E+02 0.93263647997E+02 0.16155419099E+03 0.46743875988E+03
 0.28778189701E+04 0.13441447452E+05 0.60525552974E+04 0.36764859216E+04 0.10310019279E+04
 0.27493843153E+03 0.13525731707E+03 0.81667450987E+02 0.45522511400E+02 0.23282070325E+02
 0.11258725063E+02 0.52641998784E+01 0.24124945244E+01 0.10934118325E+01 0.49216468583E+00
 0.22100581205E+00 0.99187327559E-01 0.44761112326E-01 0.20736720802E-01 0.10761481546E-01
 0.80524637320E-02 0.10761481546E-01 0.20736720802E-01 0.44761112326E-01 0.99187327559E-01
 0.22100581205E+00 0.49216468583E+00 0.10934118325E+01 0.24124945244E+01 0.52641998784E+01
 0.11258725063E+02 0.23282070325E+02 0.45522511400E+02 0.81667450987E+02 0.13525731707E+03
 0.27493843153E+03 0.10310019279E+04 0.36764859216E+04 0.98252165106E+03 0.69941030770E+03
 0.32268928698E+03 0.16685581777E+03 0.10618426936E+03 0.65523548824E+02 0.36656549473E+02
 0.18956400119E+02 0.93033832986E+01 0.44169690120E+01 0.20535064455E+01 0.94270859045E+00
 0.42938181531E+00 0.19460136921E+00 0.88248017412E-01 0.40042788238E-01 0.18785933003E-01
 0.97301917600E-02 0.74100441260E-02 0.97301917599E-02 0.18785933002E-01 0.40042788238E-01
 0.88248017412E-01 0.19460136921E+00 0.42938181531E+00 0.94270859045E+00 0.20535064455E+01
 0.44169690120E+01 0.93033832986E+01 0.18956400119E+02 0.36656549473E+02 0.65523548824E+02
 0.10618426936E+03 0.16685581777E+03 0.32268928698E+03 0.69941030770E+03 0.23807181304E+03
 0.20870220538E+03 0.15652725306E+03 0.11362185912E+03 0.77762353307E+02 0.48196925538E+02
 0.27208333785E+02 0.14313976304E+02 0.71698520471E+01 0.34741042812E+01 0.16463911185E+01
 0.76861348444E+00 0.35573955143E+00 0.16329848606E+00 0.75046516961E-01 0.34354679537E-01
 0.16348747637E-01 0.84862205528E-02 0.65673825071E-02 0.84862205528E-02 0.16348747636E-01
 0.34354679537E-01 0.75046516960E-01 0.16329848606E+00 0.35573955144E+00 0.76861348444E+00
 0.16463911185E+01 0.34741042812E+01 0.71698520471E+01 0.14313976304E+02 0.27208333785E+02
 0.48196925538E+02 0.77762353307E+02 0.11362185912E+03 0.15652725306E+03 0.20870220538E+03
 0.12437646944E+03 0.11731445492E+03 0.99311709981E+02 0.75964393627E+02 0.52348740965E+02
 0.32661634932E+02 0.18748085331E+02 0.10093030864E+02 0.51841836344E+01 0.25743384976E+01
 0.12485338392E+01 0.59497258333E+00 0.28054060488E+00 0.13097658586E+00 0.61047335000E-01
 0.28367259750E-01 0.13637242232E-01 0.72042844320E-02 0.55691386259E-02 0.72042844320E-02
 0.13637242233E-01 0.28367259750E-01 0.61047335000E-01 0.13097658586E+00 0.28054060488E+00
 0.59497258333E+00 0.12485338392E+01 0.25743384976E+01 0.51841836344E+01 0.10093030864E+02
 0.18748085331E+02 0.32661634932E+02 0.52348740965E+02 0.75964393627E+02 0.99311709981E+02
 0.11731445492E+03 0.75593546704E+02 0.71670247204E+02 0.61090944711E+02 0.46865157074E+02
 0.32507140046E+02 0.20601892024E+02 0.12106941740E+02 0.67004363851E+01 0.35417174154E+01
 0.18078540844E+01 0.89962517511E+00 0.43912422422E+00 0.21123675258E+00 0.10070524020E+00
 0.47598048128E-01 0.22605023977E-01 0.10904906417E-01 0.59681644191E-02 0.45062525851E-02
 0.59681644191E-02 0.10904906418E-01 0.22605023977E-01 0.47598048129E-01 0.10070524020E+00
 0.21123675258E+00 0.43912422422E+00 0.89962517511E+00 0.18078540844E+01 0.35417174154E+01
 0.67004363851E+01 0.12106941740E+02 0.20601892024E+02 0.32507140046E+02 0.46865157074E+02
 0.61090944711E+02 0.71670247204E+02 0.42749837397E+02 0.40564305603E+02 0.34689194054E+02
 0.26829541104E+02 0.18899241634E+02 0.12253146408E+02 0.74044176627E+01 0.42244424300E+01
 0.23022069212E+01 0.12108161227E+01 0.61907352919E+00 0.31007319922E+00 0.15259660614E+00
 0.74308832390E-01 0.35780688200E-01 0.17310352461E-01 0.84818521343E-02 0.47364523246E-02
 0.35906580160E-02 0.47364523246E-02 0.84818521352E-02 0.17310352461E-01 0.35780688201E-01
 0.74308832390E-01 0.15259660614E+00 0.31007319922E+00 0.61907352919E+00 0.12108161227E+01
 0.23022069212E+01 0.42244424300E+01 0.74044176626E+01 0.12253146408E+02 0.18899241634E+02
 0.26829541104E+02 0.34689194054E+02 0.40564305603E+02 0.22601123170E+02 0.21499533088E+02
 0.18532987085E+02 0.14539635245E+02 0.10456312472E+02 0.69589671985E+01 0.43324125336E+01
 0.25506591940E+01 0.14344244237E+01 0.77752836581E+00 0.40929268968E+00 0.21030984294E+00
 0.10619147855E+00 0.52760766891E-01 0.26035018769E-01 0.12748879978E-01 0.64553913264E-02
 0.35811691996E-02 0.28425488330E-02 0.35811691996E-02 0.64553913263E-02 0.12748879978E-01
 0.26035018770E-01 0.52760766891E-01 0.10619147855E+00 0.21030984294E+00 0.40929268968E+00
 0.77752836581E+00 0.14344244237E+01 0.25506591940E+01 0.43324125336E+01 0.69589671985E+01
 0.10456312472E+02 0.14539635245E+02 0.18532987085E+02 0.21499533088E+02 0.11448091703E+02
 0.10926867999E+02 0.95141469385E+01 0.75885650269E+01 0.55807767823E+01 0.38151171892E+01
 0.24468765915E+01 0.14860767188E+01 0.86241347069E+00 0.48181997582E+00 0.26095076313E+00
 0.13781827539E+00 0.71294067407E-01 0.36306448053E-01 0.18262606121E-01 0.91739565528E-02
 0.47072876800E-02 0.27101650850E-02 0.21304665604E-02 0.27101650850E-02 0.47072876803E-02
 0.91739565528E-02 0.18262606121E-01 0.36306448053E-01 0.71294067404E-01 0.13781827539E+00
 0.26095076313E+00 0.48181997582E+00 0.86241347069E+00 0.14860767188E+01 0.24468765915E+01
 0.38151171892E+01 0.55807767823E+01 0.75885650269E+01 0.95141469385E+01 0.10926867999E+02
 0.56526555784E+01 0.54139527206E+01 0.47627990442E+01 0.38621813376E+01 0.29029330806E+01
 0.20366013664E+01 0.13440942392E+01 0.84125496114E+00 0.50307738831E+00 0.28951023858E+00
 0.16131144380E+00 0.87516059077E-01 0.46438140184E-01 0.24217216286E-01 0.12468169201E-01
 0.64083686381E-02 0.33705003013E-02 0.19901570882E-02 0.15863544944E-02 0.19901570881E-02
 0.33705003008E-02 0.64083686381E-02 0.12468169202E-01 0.24217216286E-01 0.46438140181E-01
 0.87516059077E-01 0.16131144380E+00 0.28951023858E+00 0.50307738831E+00 0.84125496114E+00
 0.13440942392E+01 0.20366013664E+01 0.29029330806E+01 0.38621813376E+01 0.47627990442E+01
 0.54139527206E+01 0.27495298212E+01 0.26420289444E+01 0.23467591306E+01 0.19327251087E+01
 0.14827619478E+01 0.10658216625E+01 0.72244520745E+00 0.46515631817E+00 0.28625597652E+00
 0.16946926806E+00 0.97083785487E-01 0.54078803220E-01 0.29443620719E-01 0.15731194981E-01
 0.83078464951E-02 0.43769565310E-02 0.23841255596E-02 0.14503330917E-02 0.11879543975E-02
 0.14503330916E-02 0.23841255601E-02 0.43769565310E-02 0.83078464952E-02 0.15731194981E-01
 0.29443620720E-01 0.54078803220E-01 0.97083785487E-01 0.16946926806E+00 0.28625597652E+00
 0.46515631817E+00 0.72244520744E+00 0.10658216625E+01 0.14827619478E+01 0.19327251087E+01
 0.23467591306E+01 0.26420289444E+01 0.13261175124E+01 0.12782527432E+01 0.11455211253E+01
 0.95683721717E+00 0.74764783852E+00 0.54948370457E+00 0.38192594495E+00 0.25234166767E+00
 0.15955695660E+00 0.97059107408E-01 0.57096560924E-01 0.32655489102E-01 0.18236251226E-01
 0.10007868360E-01 0.54322720877E-02 0.29681344325E-02 0.16804399027E-02 0.10812535741E-02
 0.90037460034E-03 0.10812535738E-02 0.16804399029E-02 0.29681344325E-02 0.54322720882E-02
 0.10007868360E-01 0.18236251225E-01 0.32655489102E-01 0.57096560924E-01 0.97059107408E-01
 0.15955695660E+00 0.25234166767E+00 0.38192594495E+00 0.54948370457E+00 0.74764783852E+00
 0.95683721717E+00 0.11455211253E+01 0.12782527432E+01 0.63652494258E+00 0.61515780248E+00
 0.55569970491E+00 0.47020395756E+00 0.37382524366E+00 0.28024821785E+00 0.19912128296E+00
 0.13488061144E+00 0.87448143684E-01 0.54575116738E-01 0.32952794136E-01 0.19338829297E-01
 0.11102741072E-01 0.62743050759E-02 0.35363033112E-02 0.20236433137E-02 0.12332449720E-02
 0.85182727270E-03 0.74479141259E-03 0.85182727311E-03 0.12332449718E-02 0.20236433137E-02
 0.35363033102E-02 0.62743050760E-02 0.11102741074E-01 0.19338829297E-01 0.32952794136E-01
 0.54575116738E-01 0.87448143684E-01 0.13488061144E+00 0.19912128297E+00 0.28024821785E+00
 0.37382524366E+00 0.47020395756E+00 0.55569970491E+00 0.61515780248E+00 0.30519900651E+00
 0.29565043733E+00 0.26888989101E+00 0.22998590261E+00 0.18552007885E+00 0.14171784646E+00
 0.10287452118E+00 0.71198578184E-01 0.47282942374E-01 0.30247530785E-01 0.18732194921E-01
 0.11305722686E-01 0.66929737949E-02 0.39382457850E-02 0.23421642887E-02 0.14560815460E-02
 0.97842205306E-03 0.75487670339E-03 0.68506077161E-03 0.75487670367E-03 0.97842205181E-03
 0.14560815460E-02 0.23421642877E-02 0.39382457850E-02 0.66929737916E-02 0.11305722686E-01
 0.18732194919E-01 0.30247530785E-01 0.47282942374E-01 0.71198578184E-01 0.10287452118E+00
 0.14171784646E+00 0.18552007885E+00 0.22998590261E+00 0.26888989101E+00 0.29565043733E+00
 0.14603169606E+00 0.14177334027E+00 0.12980923682E+00 0.11224852074E+00 0.91850806980E-01
 0.71266168201E-01 0.52661013547E-01 0.37271283014E-01 0.25304344261E-01 0.16585681361E-01
 0.10561625345E-01 0.65797238197E-02 0.40688698568E-02 0.25411594725E-02 0.16537217830E-02
 0.11555036557E-02 0.90026123833E-03 0.77674361726E-03 0.74479261852E-03 0.77674361715E-03
 0.90026123820E-03 0.11555036557E-02 0.16537217827E-02 0.25411594725E-02 0.40688698567E-02
 0.65797238197E-02 0.10561625345E-01 0.16585681361E-01 0.25304344262E-01 0.37271283014E-01
 0.52661013549E-01 0.71266168201E-01 0.91850806980E-01 0.11224852074E+00 0.12980923682E+00
 0.14177334027E+00 0.70073811193E-01 0.68150861282E-01 0.62704210123E-01 0.54648822033E-01
 0.45221445311E-01 0.35677008512E-01 0.26883676082E-01 0.19365243775E-01 0.13462021251E-01
 0.90657411069E-02 0.59636473672E-02 0.38941922841E-02 0.25711119616E-02 0.17754069336E-02
 0.13213523888E-02 0.10848925617E-02 0.96414501863E-03 0.91653519406E-03 0.90037711584E-03
 0.91653519411E-03 0.96414501870E-03 0.10848925617E-02 0.13213523876E-02 0.17754069336E-02
 0.25711119615E-02 0.38941922842E-02 0.59636473650E-02 0.90657411069E-02 0.13462021250E-01
 0.19365243775E-01 0.26883676087E-01 0.35677008512E-01 0.45221445310E-01 0.54648822033E-01
 0.62704210123E-01 0.68150861282E-01 0.33542008332E-01 0.32684188514E-01 0.30263098453E-01
 0.26651914463E-01 0.22348365263E-01 0.17838825843E-01 0.13630811108E-01 0.10067545845E-01
 0.71723900663E-02 0.49953373177E-02 0.34575182893E-02 0.24262155156E-02 0.17913567112E-02
 0.14296717251E-02 0.12512285447E-02 0.11787955705E-02 0.11723383235E-02 0.11795954662E-02
 0.11879586390E-02 0.11795954663E-02 0.11723383251E-02 0.11787955705E-02 0.12512285449E-02
 0.14296717251E-02 0.17913567088E-02 0.24262155156E-02 0.34575182902E-02 0.49953373177E-02
 0.71723900678E-02 0.10067545845E-01 0.13630811109E-01 0.17838825843E-01 0.22348365263E-01
 0.26651914463E-01 0.30263098454E-01 0.32684188514E-01 0.16189447695E-01 0.15794744967E-01
 0.14661571703E-01 0.12965083882E-01 0.10954764310E-01 0.89123295400E-02 0.69819669330E-02
 0.52493985915E-02 0.38837078861E-02 0.28568443389E-02 0.21396479330E-02 0.16974715513E-02
 0.14579412948E-02 0.13702082131E-02 0.13821698245E-02 0.14497338065E-02 0.15163024858E-02
 0.15701617041E-02 0.15863607665E-02 0.15701617040E-02 0.15163024856E-02 0.14497338065E-02
 0.13821698237E-02 0.13702082130E-02 0.14579412951E-02 0.16974715513E-02 0.21396479329E-02
 0.28568443389E-02 0.38837078854E-02 0.52493985916E-02 0.69819669368E-02 0.89123295400E-02
 0.10954764310E-01 0.12965083882E-01 0.14661571704E-01 0.15794744967E-01 0.77402425704E-02
 0.75681350009E-02 0.70873808462E-02 0.63624198918E-02 0.54762745983E-02 0.44964740966E-02
 0.35703967744E-02 0.28228328705E-02 0.22051622651E-02 0.17695048223E-02 0.15133439025E-02
 0.14014721402E-02 0.14164453352E-02 0.15239574809E-02 0.16762888627E-02 0.18308746178E-02
 0.19835978806E-02 0.20885787049E-02 0.21304757395E-02 0.20885787048E-02 0.19835978819E-02
 0.18308746177E-02 0.16762888641E-02 0.15239574809E-02 0.14164453368E-02 0.14014721402E-02
 0.15133439043E-02 0.17695048223E-02 0.22051622653E-02 0.28228328704E-02 0.35703967707E-02
 0.44964740967E-02 0.54762745977E-02 0.63624198918E-02 0.70873808465E-02 0.75681350008E-02
 0.38007795997E-02 0.37185633581E-02 0.34752246751E-02 0.31100245256E-02 0.26862805095E-02
 0.22939781076E-02 0.19350386971E-02 0.15931235414E-02 0.13795642933E-02 0.12723932787E-02
 0.12702087488E-02 0.13765233790E-02 0.15723677726E-02 0.18149776483E-02 0.20894744752E-02
 0.23909961012E-02 0.26337903406E-02 0.27930398647E-02 0.28425610134E-02 0.27930398646E-02
 0.26337903396E-02 0.23909961012E-02 0.20894744740E-02 0.18149776484E-02 0.15723677695E-02
 0.13765233791E-02 0.12702087497E-02 0.12723932787E-02 0.13795642922E-02 0.15931235413E-02
 0.19350386978E-02 0.22939781076E-02 0.26862805102E-02 0.31100245256E-02 0.34752246767E-02
 0.37185633580E-02 0.17965334496E-02 0.17664969802E-02 0.16873538921E-02 0.15719717844E-02
 0.14250679742E-02 0.12388665098E-02 0.10780704696E-02 0.10241738242E-02 0.10099558977E-02
 0.10863641378E-02 0.12557545003E-02 0.15181992039E-02 0.18404597106E-02 0.22296513245E-02
 0.26757640699E-02 0.30465696674E-02 0.33363105876E-02 0.35200474024E-02 0.35906740525E-02
 0.35200474025E-02 0.33363105877E-02 0.30465696674E-02 0.26757640694E-02 0.22296513246E-02
 0.18404597061E-02 0.15181992039E-02 0.12557545008E-02 0.10863641378E-02 0.10099558985E-02
 0.10241738241E-02 0.10780704712E-02 0.12388665098E-02 0.14250679746E-02 0.15719717844E-02
 0.16873538934E-02 0.17664969801E-02 0.93991519502E-03 0.92148869865E-03 0.87115146404E-03
 0.79265372177E-03 0.72373822488E-03 0.70680461765E-03 0.73265907713E-03 0.75347536623E-03
 0.87880676536E-03 0.10758076979E-02 0.13705793824E-02 0.17447871361E-02 0.22057786113E-02
 0.27667577534E-02 0.32608015502E-02 0.37180006868E-02 0.41205754315E-02 0.44074094104E-02
 0.45062740111E-02 0.44074094104E-02 0.41205754307E-02 0.37180006867E-02 0.32608015512E-02
 0.27667577535E-02 0.22057786105E-02 0.17447871362E-02 0.13705793835E-02 0.10758076979E-02
 0.87880676572E-03 0.75347536614E-03 0.73265907539E-03 0.70680461758E-03 0.72373822578E-03
 0.79265372176E-03 0.87115146429E-03 0.92148869870E-03 0.42309794035E-03 0.42534186560E-03
 0.43131720643E-03 0.45290317389E-03 0.47553173137E-03 0.48642592239E-03 0.52620579996E-03
 0.67644904585E-03 0.86743259234E-03 0.11544722629E-02 0.15472713974E-02 0.20230429546E-02
 0.26508203178E-02 0.32628922172E-02 0.38768257349E-02 0.45230468188E-02 0.50773963302E-02
 0.54443582260E-02 0.55691648031E-02 0.54443582261E-02 0.50773963306E-02 0.45230468188E-02
 0.38768257344E-02 0.32628922173E-02 0.26508203174E-02 0.20230429547E-02 0.15472713982E-02
 0.11544722629E-02 0.86743259311E-03 0.67644904577E-03 0.52620579776E-03 0.48642592229E-03
 0.47553173215E-03 0.45290317389E-03 0.43131720689E-03 0.42534186567E-03 0.27643865547E-03
 0.27794248095E-03 0.26747656200E-03 0.26333072464E-03 0.27695622071E-03 0.36609854112E-03
 0.49956044110E-03 0.65562011424E-03 0.91021348946E-03 0.12808793253E-02 0.17323521183E-02
 0.23476360511E-02 0.30494955798E-02 0.37535505397E-02 0.45661890946E-02 0.53704580697E-02
 0.60186214308E-02 0.64272747605E-02 0.65674126828E-02 0.64272747606E-02 0.60186214309E-02
 0.53704580697E-02 0.45661890955E-02 0.37535505397E-02 0.30494955792E-02 0.23476360512E-02
 0.17323521185E-02 0.12808793253E-02 0.91021349056E-03 0.65562011421E-03 0.49956043747E-03
 0.36609854104E-03 0.27695622108E-03 0.26333072464E-03 0.26747656135E-03 0.27794248108E-03
 0.11086545679E-03 0.11698695681E-03 0.14721075580E-03 0.19978977715E-03 0.27288399267E-03
 0.34115660942E-03 0.45477355980E-03 0.68608073811E-03 0.98204164665E-03 0.13956475406E-02
 0.19280338973E-02 0.26366887497E-02 0.33941852961E-02 0.42359862388E-02 0.52247919261E-02
 0.61231299928E-02 0.68253308761E-02 0.72542570389E-02 0.74100779274E-02 0.72542570390E-02
 0.68253308759E-02 0.61231299928E-02 0.52247919250E-02 0.42359862389E-02 0.33941852958E-02
 0.26366887498E-02 0.19280338962E-02 0.13956475406E-02 0.98204164659E-03 0.68608073817E-03
 0.45477356515E-03 0.34115660935E-03 0.27288399222E-03 0.19978977715E-03 0.14721075580E-03
 0.11698695691E-03 0.13056653035E-03 0.12954007710E-03 0.13805313291E-03 0.14697466187E-03
 0.19476009100E-03 0.31044935592E-03 0.49772809969E-03 0.70342787421E-03 0.10456036178E-02
 0.14978521102E-02 0.20894991656E-02 0.28634981099E-02 0.36665871138E-02 0.46581095380E-02
 0.57445847727E-02 0.66941807255E-02 0.74250281889E-02 0.78893454423E-02 0.80525009040E-02
 0.78893454423E-02 0.74250281876E-02 0.66941807255E-02 0.57445847717E-02 0.46581095380E-02
 0.36665871176E-02 0.28634981100E-02 0.20894991647E-02 0.14978521102E-02 0.10456036171E-02
 0.70342787432E-03 0.49772809975E-03 0.31044935588E-03 0.19476009129E-03 0.14697466187E-03
 0.13805313268E-03 0.12954007717E-03 0.45788082430E-04 0.50238833461E-04 0.89742826232E-04
 0.14836116657E-03 0.24069204870E-03 0.32595950349E-03 0.47351178662E-03 0.73563499046E-03
 0.10928284557E-02 0.15586654765E-02 0.22034761445E-02 0.29984179844E-02 0.38568638670E-02
 0.49328466742E-02 0.60722552949E-02 0.70517023962E-02 0.78113090430E-02 0.82973261069E-02
 0.84711592485E-02 0.82973261078E-02 0.78113090420E-02 0.70517023962E-02 0.60722552961E-02
 0.49328466743E-02 0.38568638644E-02 0.29984179844E-02 0.22034761445E-02 0.15586654765E-02
 0.10928284544E-02 0.73563499052E-03 0.47351178256E-03 0.32595950348E-03 0.24069204741E-03
 0.14836116657E-03 0.89742825797E-04 0.50238833511E-04 0.10492665751E-03 0.10397025373E-03
 0.11626609374E-03 0.12904259571E-03 0.18491114021E-03 0.30869251605E-03 0.51145789206E-03
 0.73395801006E-03 0.11061049081E-02 0.15859407386E-02 0.22379396175E-02 0.30491821113E-02
 0.39192156360E-02 0.50331858084E-02 0.61828846329E-02 0.71723265137E-02 0.79374918147E-02
 0.84387226484E-02 0.86125720409E-02 0.84387226489E-02 0.79374918146E-02 0.71723265137E-02
 0.61828846329E-02 0.50331858084E-02 0.39192156360E-02 0.30491821114E-02 0.22379396175E-02
 0.15859407386E-02 0.11061049081E-02 0.73395801006E-03 0.51145789206E-03 0.30869251606E-03
 0.18491114021E-03 0.12904259570E-03 0.11626609372E-03 0.10397025295E-03 0.45788082333E-04
 0.50238833396E-04 0.89742825816E-04 0.14836116656E-03 0.24069204741E-03 0.32595950350E-03
 0.47351178257E-03 0.73563499049E-03 0.10928284544E-02 0.15586654765E-02 0.22034761445E-02
 0.29984179844E-02 0.38568638644E-02 0.49328466742E-02 0.60722552961E-02 0.70517023962E-02
 0.78113090423E-02 0.82973261078E-02 0.84711592513E-02 0.82973261074E-02 0.78113090433E-02
 0.70517023961E-02 0.60722552949E-02 0.49328466742E-02 0.38568638670E-02 0.29984179844E-02
 0.22034761445E-02 0.15586654765E-02 0.10928284557E-02 0.73563499049E-03 0.47351178662E-03
 0.32595950346E-03 0.24069204871E-03 0.14836116657E-03 0.89742826208E-04 0.50238833458E-04
 0.13056653037E-03 0.12954007708E-03 0.13805313270E-03 0.14697466187E-03 0.19476009126E-03
 0.31044935592E-03 0.49772809976E-03 0.70342787426E-03 0.10456036171E-02 0.14978521102E-02
 0.20894991647E-02 0.28634981099E-02 0.36665871176E-02 0.46581095380E-02 0.57445847718E-02
 0.66941807255E-02 0.74250281876E-02 0.78893454423E-02 0.80525009045E-02 0.78893454421E-02
 0.74250281887E-02 0.66941807255E-02 0.57445847727E-02 0.46581095380E-02 0.36665871138E-02
 0.28634981100E-02 0.20894991656E-02 0.14978521102E-02 0.10456036178E-02 0.70342787428E-03
 0.49772809968E-03 0.31044935588E-03 0.19476009103E-03 0.14697466187E-03 0.13805313290E-03
 0.12954007719E-03 0.11086545671E-03 0.11698695674E-03 0.14721075579E-03 0.19978977715E-03
 0.27288399219E-03 0.34115660939E-03 0.45477356515E-03 0.68608073815E-03 0.98204164656E-03
 0.13956475406E-02 0.19280338962E-02 0.26366887497E-02 0.33941852958E-02 0.42359862388E-02
 0.52247919250E-02 0.61231299928E-02 0.68253308760E-02 0.72542570390E-02 0.74100779275E-02
 0.72542570391E-02 0.68253308762E-02 0.61231299928E-02 0.52247919261E-02 0.42359862388E-02
 0.33941852961E-02 0.26366887498E-02 0.19280338973E-02 0.13956475406E-02 0.98204164668E-03
 0.68608073814E-03 0.45477355980E-03 0.34115660937E-03 0.27288399270E-03 0.19978977715E-03
 0.14721075581E-03 0.11698695685E-03 0.27643865547E-03 0.27794248095E-03 0.26747656135E-03
 0.26333072464E-03 0.27695622105E-03 0.36609854107E-03 0.49956043747E-03 0.65562011424E-03
 0.91021349054E-03 0.12808793253E-02 0.17323521186E-02 0.23476360512E-02 0.30494955792E-02
 0.37535505397E-02 0.45661890955E-02 0.53704580697E-02 0.60186214309E-02 0.64272747605E-02
 0.65674126827E-02 0.64272747605E-02 0.60186214308E-02 0.53704580697E-02 0.45661890946E-02
 0.37535505397E-02 0.30494955798E-02 0.23476360512E-02 0.17323521183E-02 0.12808793253E-02
 0.91021348948E-03 0.65562011421E-03 0.49956044110E-03 0.36609854109E-03 0.27695622075E-03
 0.26333072464E-03 0.26747656200E-03 0.27794248108E-03 0.42309794026E-03 0.42534186556E-03
 0.43131720687E-03 0.45290317389E-03 0.47553173215E-03 0.48642592233E-03 0.52620579776E-03
 0.67644904580E-03 0.86743259310E-03 0.11544722629E-02 0.15472713982E-02 0.20230429547E-02
 0.26508203174E-02 0.32628922173E-02 0.38768257344E-02 0.45230468188E-02 0.50773963306E-02
 0.54443582262E-02 0.55691648029E-02 0.54443582262E-02 0.50773963302E-02 0.45230468188E-02
 0.38768257349E-02 0.32628922173E-02 0.26508203178E-02 0.20230429546E-02 0.15472713974E-02
 0.11544722629E-02 0.86743259234E-03 0.67644904581E-03 0.52620579996E-03 0.48642592235E-03
 0.47553173137E-03 0.45290317389E-03 0.43131720646E-03 0.42534186563E-03 0.93991519502E-03
 0.92148869865E-03 0.87115146427E-03 0.79265372176E-03 0.72373822580E-03 0.70680461760E-03
 0.73265907539E-03 0.75347536616E-03 0.87880676573E-03 0.10758076979E-02 0.13705793835E-02
 0.17447871362E-02 0.22057786105E-02 0.27667577535E-02 0.32608015511E-02 0.37180006867E-02
 0.41205754307E-02 0.44074094104E-02 0.45062740112E-02 0.44074094104E-02 0.41205754315E-02
 0.37180006867E-02 0.32608015503E-02 0.27667577535E-02 0.22057786113E-02 0.17447871361E-02
 0.13705793824E-02 0.10758076979E-02 0.87880676535E-03 0.75347536621E-03 0.73265907712E-03
 0.70680461763E-03 0.72373822485E-03 0.79265372176E-03 0.87115146405E-03 0.92148869870E-03
 0.17965334496E-02 0.17664969802E-02 0.16873538935E-02 0.15719717844E-02 0.14250679746E-02
 0.12388665098E-02 0.10780704712E-02 0.10241738241E-02 0.10099558985E-02 0.10863641378E-02
 0.12557545008E-02 0.15181992039E-02 0.18404597061E-02 0.22296513245E-02 0.26757640694E-02
 0.30465696673E-02 0.33363105876E-02 0.35200474025E-02 0.35906740524E-02 0.35200474027E-02
 0.33363105876E-02 0.30465696673E-02 0.26757640699E-02 0.22296513245E-02 0.18404597106E-02
 0.15181992039E-02 0.12557545003E-02 0.10863641378E-02 0.10099558977E-02 0.10241738241E-02
 0.10780704696E-02 0.12388665098E-02 0.14250679742E-02 0.15719717843E-02 0.16873538921E-02
 0.17664969801E-02 0.38007795997E-02 0.37185633581E-02 0.34752246767E-02 0.31100245256E-02
 0.26862805102E-02 0.22939781075E-02 0.19350386978E-02 0.15931235414E-02 0.13795642922E-02
 0.12723932787E-02 0.12702087497E-02 0.13765233790E-02 0.15723677694E-02 0.18149776484E-02
 0.20894744740E-02 0.23909961012E-02 0.26337903395E-02 0.27930398647E-02 0.28425610134E-02
 0.27930398645E-02 0.26337903407E-02 0.23909961012E-02 0.20894744751E-02 0.18149776483E-02
 0.15723677726E-02 0.13765233790E-02 0.12702087488E-02 0.12723932787E-02 0.13795642933E-02
 0.15931235413E-02 0.19350386971E-02 0.22939781076E-02 0.26862805095E-02 0.31100245256E-02
 0.34752246751E-02 0.37185633581E-02 0.77402425703E-02 0.75681350008E-02 0.70873808465E-02
 0.63624198918E-02 0.54762745977E-02 0.44964740966E-02 0.35703967707E-02 0.28228328705E-02
 0.22051622653E-02 0.17695048223E-02 0.15133439043E-02 0.14014721402E-02 0.14164453368E-02
 0.15239574809E-02 0.16762888640E-02 0.18308746177E-02 0.19835978819E-02 0.20885787048E-02
 0.21304757394E-02 0.20885787047E-02 0.19835978806E-02 0.18308746177E-02 0.16762888626E-02
 0.15239574808E-02 0.14164453352E-02 0.14014721402E-02 0.15133439024E-02 0.17695048223E-02
 0.22051622651E-02 0.28228328704E-02 0.35703967744E-02 0.44964740967E-02 0.54762745983E-02
 0.63624198918E-02 0.70873808462E-02 0.75681350008E-02 0.16189447695E-01 0.15794744967E-01
 0.14661571704E-01 0.12965083882E-01 0.10954764310E-01 0.89123295400E-02 0.69819669368E-02
 0.52493985916E-02 0.38837078854E-02 0.28568443389E-02 0.21396479328E-02 0.16974715512E-02
 0.14579412951E-02 0.13702082130E-02 0.13821698237E-02 0.14497338064E-02 0.15163024856E-02
 0.15701617040E-02 0.15863607665E-02 0.15701617039E-02 0.15163024858E-02 0.14497338064E-02
 0.13821698245E-02 0.13702082130E-02 0.14579412948E-02 0.16974715513E-02 0.21396479330E-02
 0.28568443389E-02 0.38837078861E-02 0.52493985915E-02 0.69819669330E-02 0.89123295400E-02
 0.10954764310E-01 0.12965083882E-01 0.14661571703E-01 0.15794744967E-01 0.33542008331E-01
 0.32684188514E-01 0.30263098454E-01 0.26651914463E-01 0.22348365263E-01 0.17838825843E-01
 0.13630811109E-01 0.10067545845E-01 0.71723900678E-02 0.49953373177E-02 0.34575182902E-02
 0.24262155156E-02 0.17913567088E-02 0.14296717251E-02 0.12512285449E-02 0.11787955704E-02
 0.11723383250E-02 0.11795954661E-02 0.11879586387E-02 0.11795954662E-02 0.11723383234E-02
 0.11787955704E-02 0.12512285446E-02 0.14296717251E-02 0.17913567112E-02 0.24262155157E-02
 0.34575182893E-02 0.49953373177E-02 0.71723900663E-02 0.10067545845E-01 0.13630811108E-01
 0.17838825843E-01 0.22348365263E-01 0.26651914463E-01 0.30263098453E-01 0.32684188514E-01
 0.70073811193E-01 0.68150861282E-01 0.62704210123E-01 0.54648822033E-01 0.45221445310E-01
 0.35677008512E-01 0.26883676087E-01 0.19365243775E-01 0.13462021250E-01 0.90657411069E-02
 0.59636473650E-02 0.38941922841E-02 0.25711119615E-02 0.17754069335E-02 0.13213523876E-02
 0.10848925616E-02 0.96414501868E-03 0.91653519403E-03 0.90037711577E-03 0.91653519400E-03
 0.96414501852E-03 0.10848925616E-02 0.13213523887E-02 0.17754069336E-02 0.25711119616E-02
 0.38941922842E-02 0.59636473673E-02 0.90657411069E-02 0.13462021251E-01 0.19365243775E-01
 0.26883676082E-01 0.35677008512E-01 0.45221445311E-01 0.54648822033E-01 0.62704210123E-01
 0.68150861282E-01 0.14603169606E+00 0.14177334027E+00 0.12980923682E+00 0.11224852074E+00
 0.91850806980E-01 0.71266168201E-01 0.52661013549E-01 0.37271283014E-01 0.25304344262E-01
 0.16585681361E-01 0.10561625345E-01 0.65797238197E-02 0.40688698567E-02 0.25411594725E-02
 0.16537217826E-02 0.11555036556E-02 0.90026123815E-03 0.77674361725E-03 0.74479261866E-03
 0.77674361706E-03 0.90026123824E-03 0.11555036556E-02 0.16537217829E-02 0.25411594725E-02
 0.40688698568E-02 0.65797238197E-02 0.10561625345E-01 0.16585681361E-01 0.25304344261E-01
 0.37271283014E-01 0.52661013547E-01 0.71266168201E-01 0.91850806980E-01 0.11224852074E+00
 0.12980923682E+00 0.14177334027E+00 0.30519900651E+00 0.29565043733E+00 0.26888989101E+00
 0.22998590261E+00 0.18552007885E+00 0.14171784646E+00 0.10287452118E+00 0.71198578184E-01
 0.47282942374E-01 0.30247530785E-01 0.18732194919E-01 0.11305722686E-01 0.66929737915E-02
 0.39382457849E-02 0.23421642877E-02 0.14560815459E-02 0.97842205176E-03 0.75487670337E-03
 0.68506077140E-03 0.75487670358E-03 0.97842205293E-03 0.14560815460E-02 0.23421642886E-02
 0.39382457850E-02 0.66929737949E-02 0.11305722686E-01 0.18732194921E-01 0.30247530785E-01
 0.47282942374E-01 0.71198578184E-01 0.10287452118E+00 0.14171784646E+00 0.18552007885E+00
 0.22998590261E+00 0.26888989101E+00 0.29565043733E+00 0.63652494258E+00 0.61515780248E+00
 0.55569970491E+00 0.47020395756E+00 0.37382524366E+00 0.28024821785E+00 0.19912128297E+00
 0.13488061144E+00 0.87448143684E-01 0.54575116738E-01 0.32952794136E-01 0.19338829297E-01
 0.11102741074E-01 0.62743050759E-02 0.35363033102E-02 0.20236433136E-02 0.12332449718E-02
 0.85182727282E-03 0.74479141267E-03 0.85182727316E-03 0.12332449719E-02 0.20236433136E-02
 0.35363033111E-02 0.62743050759E-02 0.11102741072E-01 0.19338829297E-01 0.32952794136E-01
 0.54575116738E-01 0.87448143684E-01 0.13488061144E+00 0.19912128296E+00 0.28024821785E+00
 0.37382524366E+00 0.47020395756E+00 0.55569970491E+00 0.61515780248E+00 0.13261175124E+01
 0.12782527432E+01 0.11455211253E+01 0.95683721717E+00 0.74764783852E+00 0.54948370457E+00
 0.38192594495E+00 0.25234166767E+00 0.15955695660E+00 0.97059107408E-01 0.57096560924E-01
 0.32655489102E-01 0.18236251225E-01 0.10007868360E-01 0.54322720882E-02 0.29681344325E-02
 0.16804399028E-02 0.10812535740E-02 0.90037460026E-03 0.10812535737E-02 0.16804399027E-02
 0.29681344325E-02 0.54322720877E-02 0.10007868360E-01 0.18236251226E-01 0.32655489102E-01
 0.57096560924E-01 0.97059107408E-01 0.15955695660E+00 0.25234166767E+00 0.38192594495E+00
 0.54948370457E+00 0.74764783852E+00 0.95683721717E+00 0.11455211253E+01 0.12782527432E+01
 0.27495298212E+01 0.26420289444E+01 0.23467591306E+01 0.19327251087E+01 0.14827619478E+01
 0.10658216625E+01 0.72244520744E+00 0.46515631817E+00 0.28625597652E+00 0.16946926806E+00