=========================================
SLURM_JOB_ID = 51752969
SLURM_JOB_NODELIST = lnode27
SLURM_GPUS = 
SLURM_CPUS_ON_NODE = 24
SLURM_JOB_PARTITION = lenovo
SLURM_TASK_PID = 771068
CUDA_VISIBLE_DEVICES = 
==========================================
 running on   24 total cores
 distrk:  each k-point on   24 cores,    1 groups
 distr:  one band on    4 cores,    6 groups
 using from now: INCAR     
 vasp.5.4.4.18Apr17-6-g9f103f2a35 (build Apr 28 2018 00:24:27) complex          
  
 POSCAR found type information on POSCAR  Fe
 POSCAR found :  1 types and       2 ions
 scaLAPACK will be used

 ----------------------------------------------------------------------------- 
|                                                                             |
|  ADVICE TO THIS USER RUNNING 'VASP/VAMP'   (HEAR YOUR MASTER'S VOICE ...):  |
|                                                                             |
|      You have a (more or less) 'small supercell' and for smaller cells      |
|      it is recommended  to use the reciprocal-space projection scheme!      |
|      The real space optimization is not  efficient for small cells and it   |
|      is also less accurate ...                                              |
|      Therefore set LREAL=.FALSE. in the  INCAR file                         |
|                                                                             |
 ----------------------------------------------------------------------------- 

 LDA part: xc-table for Pade appr. of Perdew
 POSCAR, INCAR and KPOINTS ok, starting setup
 FFT: planning ...
 WAVECAR not read
 entering main loop
       N       E                     dE             d eps       ncg     rms          rms(c)
DAV:   1     0.260468679588E+03    0.26047E+03   -0.23339E+04  3432   0.253E+03
DAV:   2    -0.840153117830E+01   -0.26887E+03   -0.25763E+03  3432   0.473E+02
DAV:   3    -0.162060832317E+02   -0.78046E+01   -0.77877E+01  3708   0.868E+01
DAV:   4    -0.162737037520E+02   -0.67621E-01   -0.67632E-01  3852   0.772E+00
DAV:   5    -0.162749308098E+02   -0.12271E-02   -0.12271E-02  3744   0.979E-01    0.250E+01
DAV:   6    -0.164592959840E+02   -0.18437E+00   -0.74922E+00  3420   0.398E+01    0.691E+00
DAV:   7    -0.165138582182E+02   -0.54562E-01   -0.61494E-01  3408   0.980E+00    0.431E+00
DAV:   8    -0.165235858017E+02   -0.97276E-02   -0.15162E-02  3768   0.149E+00    0.137E+00
DAV:   9    -0.165153099454E+02    0.82759E-02   -0.52647E-03  3648   0.891E-01    0.337E-01
DAV:  10    -0.165151123051E+02    0.19764E-03   -0.22403E-03  3420   0.616E-01    0.442E-02
DAV:  11    -0.165151723536E+02   -0.60048E-04   -0.50230E-05  3684   0.675E-02    0.242E-02
DAV:  12    -0.165151805245E+02   -0.81709E-05   -0.50735E-06  3804   0.231E-02    0.956E-03
DAV:  13    -0.165151737912E+02    0.67333E-05   -0.12970E-06  3552   0.113E-02    0.251E-03
DAV:  14    -0.165151722283E+02    0.15629E-05   -0.15576E-07  2748   0.331E-03    0.661E-04
DAV:  15    -0.165151722356E+02   -0.72905E-08   -0.11105E-08  1752   0.109E-03
   1 F= -.16515172E+02 E0= -.16515172E+02  d E =0.000000E+00  mag=     4.4054
