       N       E                     dE             d eps       ncg     rms          rms(c)
DAV:   1     0.744750787789E+03    0.74475E+03   -0.33016E+04  7872   0.265E+03
DAV:   2     0.459582298994E+02   -0.69879E+03   -0.68576E+03  7616   0.704E+02
DAV:   3    -0.133688531710E+02   -0.59327E+02   -0.58075E+02  8226   0.214E+02
DAV:   4    -0.151219955162E+02   -0.17531E+01   -0.17269E+01  8498   0.380E+01
DAV:   5    -0.151640155551E+02   -0.42020E-01   -0.42012E-01  9326   0.595E+00    0.742E+01
DAV:   6    -0.790327208005E+01    0.72607E+01   -0.18193E+02 10256   0.808E+01    0.313E+01
DAV:   7    -0.585668332208E+01    0.20466E+01   -0.33768E+01  9782   0.515E+01    0.547E+00
DAV:   8    -0.624646590105E+01   -0.38978E+00   -0.28777E+00  8554   0.100E+01    0.308E+00
DAV:   9    -0.643670704318E+01   -0.19024E+00   -0.49077E-01  8864   0.423E+00    0.240E+00
DAV:  10    -0.660487637779E+01   -0.16817E+00   -0.52019E-01  9850   0.331E+00    0.494E+00
DAV:  11    -0.650256245562E+01    0.10231E+00   -0.48592E-01  9986   0.339E+00    0.206E+00
DAV:  12    -0.673247347597E+01   -0.22991E+00   -0.23284E-01  9548   0.206E+00    0.192E+00
DAV:  13    -0.633587945873E+01    0.39659E+00   -0.11845E+00  9786   0.398E+00    0.276E+00
DAV:  14    -0.495982060517E+01    0.13761E+01   -0.34735E+01  9524   0.171E+01    0.582E+00
DAV:  15    -0.227725721713E+01    0.26826E+01   -0.10087E+01  9250   0.173E+01    0.108E+01
DAV:  16    -0.709536265660E+01   -0.48181E+01   -0.41136E+01 10012   0.420E+01    0.389E+00
DAV:  17    -0.770187396135E+01   -0.60651E+00   -0.44508E+00  8592   0.895E+00    0.358E+00
DAV:  18    -0.763595929098E+01    0.65915E-01   -0.61381E-02  8236   0.138E+00    0.353E+00
DAV:  19    -0.813811715272E+01   -0.50216E+00   -0.17917E+00  9776   0.562E+00    0.349E+00
DAV:  20    -0.674346651466E+01    0.13947E+01   -0.83492E+00  9914   0.133E+01    0.560E+00
DAV:  21    -0.811977602874E+01   -0.13763E+01   -0.88775E-01  8980   0.692E+00    0.316E+00
DAV:  22    -0.788537798848E+01    0.23440E+00   -0.77974E-02  9200   0.201E+00    0.352E+00
DAV:  23    -0.694731432680E+01    0.93806E+00   -0.33445E-01  9914   0.395E+00    0.495E+00
DAV:  24    -0.673114841068E+01    0.21617E+00   -0.62237E-02  8584   0.208E+00    0.522E+00
DAV:  25    -0.763593200392E+01   -0.90478E+00   -0.23826E-01  9342   0.309E+00    0.364E+00
DAV:  26    -0.839801378949E+01   -0.76208E+00   -0.10583E+00 10240   0.619E+00    0.226E+00
DAV:  27    -0.775500958900E+01    0.64300E+00   -0.70156E-01 10296   0.547E+00    0.349E+00
DAV:  28    -0.795445320287E+01   -0.19944E+00   -0.67675E-02  8962   0.213E+00    0.283E+00
DAV:  29    -0.826478550741E+01   -0.31033E+00   -0.12865E-01  9074   0.266E+00    0.160E+00
DAV:  30    -0.833479059510E+01   -0.70005E-01   -0.88701E-02  8968   0.228E+00    0.948E-01
DAV:  31    -0.835400933609E+01   -0.19219E-01   -0.20707E-02  8956   0.124E+00    0.869E-01
DAV:  32    -0.836401331063E+01   -0.10004E-01   -0.29764E-02  9052   0.178E+00    0.522E-01
DAV:  33    -0.837409520615E+01   -0.10082E-01   -0.32409E-02  8732   0.143E+00    0.358E-01
DAV:  34    -0.836989328839E+01    0.42019E-02   -0.80627E-03  9516   0.663E-01    0.323E-01
DAV:  35    -0.837273086872E+01   -0.28376E-02   -0.15623E-03  9050   0.440E-01    0.238E-01
DAV:  36    -0.837142640061E+01    0.13045E-02   -0.16295E-03  9774   0.234E-01    0.213E-01
DAV:  37    -0.837210908920E+01   -0.68269E-03   -0.38030E-04  9110   0.140E-01    0.170E-01
DAV:  38    -0.837289803004E+01   -0.78894E-03   -0.68335E-04  7862   0.123E-01    0.138E-01
DAV:  39    -0.837351478532E+01   -0.61676E-03   -0.54348E-04  8092   0.169E-01    0.935E-02
DAV:  40    -0.837349466942E+01    0.20116E-04   -0.25903E-05  7984   0.109E-01    0.878E-02
DAV:  41    -0.837338031008E+01    0.11436E-03   -0.28212E-05  9602   0.889E-02    0.736E-02
DAV:  42    -0.837339465479E+01   -0.14345E-04    0.25907E-04  9514   0.105E-01    0.413E-02
DAV:  43    -0.837337937719E+01    0.15278E-04   -0.84107E-05  8806   0.443E-02    0.254E-02
DAV:  44    -0.837334835779E+01    0.31019E-04   -0.15079E-04  8624   0.668E-02    0.274E-02
DAV:  45    -0.837335661265E+01   -0.82549E-05   -0.19316E-05  7586   0.374E-02    0.198E-02
DAV:  46    -0.837336561615E+01   -0.90035E-05   -0.14565E-05  7808   0.305E-02    0.105E-02
DAV:  47    -0.837337511513E+01   -0.94990E-05   -0.56381E-06  7536   0.163E-02    0.520E-03
DAV:  48    -0.837338602729E+01   -0.10912E-04   -0.59561E-06  6572   0.197E-02    0.560E-03
DAV:  49    -0.837338542889E+01    0.59840E-06   -0.84325E-07  3812   0.877E-03
   1 F= -.83733854E+01 E0= -.83733854E+01  d E =0.000000E+00  mag=    -0.0000
