<?xml version="1.0" encoding="ISO-8859-1"?>
<modeling>
 <generator>
  <i name="program" type="string">vasp </i>
  <i name="version" type="string">5.4.4.18Apr17-6-g9f103f2a35  </i>
  <i name="subversion" type="string">(build Apr 28 2018 00:24:27) complex            parallel </i>
  <i name="platform" type="string">LinuxIFC </i>
  <i name="date" type="string">2021 06 13 </i>
  <i name="time" type="string">22:46:26 </i>
 </generator>
 <incar>
  <i type="string" name="PREC">accurate</i>
  <i type="string" name="ALGO"> Normal</i>
  <i type="int" name="ISPIN">     2</i>
  <i type="int" name="ICHARG">     2</i>
  <i type="int" name="NELM">   120</i>
  <i type="int" name="IBRION">    -1</i>
  <i name="EDIFF">      0.00000100</i>
  <i type="int" name="NSW">     0</i>
  <i type="int" name="ISIF">     3</i>
  <i name="SYMPREC">      0.00000001</i>
  <i name="ENCUT">    520.00000000</i>
  <v name="MAGMOM">     -5.00000000     -5.00000000      5.00000000      5.00000000</v>
  <i type="string" name="LREAL"> Auto</i>
  <i type="int" name="ISMEAR">    -5</i>
  <i name="SIGMA">      0.05000000</i>
  <i type="int" name="LMAXMIX">     4</i>
  <i type="logical" name="LWAVE"> F  </i>
  <i type="logical" name="LCHARG"> T  </i>
  <i type="logical" name="LVTOT"> F  </i>
  <i type="logical" name="LVHAR"> F  </i>
  <i type="int" name="LORBIT">    11</i>
  <i type="logical" name="LASPH"> T  </i>
  <i type="logical" name="LAECHG"> F  </i>
  <v type="int" name="KPOINT_BSE">    -1     0     0     0</v>
  <i type="int" name="NELM">   120</i>
  <i type="logical" name="LDAU"> T  </i>
  <v type="int" name="LDAUTYPE">     2</v>
  <v type="int" name="LDAUL">     2</v>
  <v name="LDAUU">      5.30000000</v>
  <v name="LDAUJ">      0.00000000</v>
  <i type="int" name="LDAUPRINT">     1</i>
  <i type="logical" name="LASPH"> T  </i>
 </incar>
 <structure name="primitive_cell" >
  <crystal>
   <varray name="basis" >
    <v>       0.00000000       2.84005200       0.00000000 </v>
    <v>      -2.84005200       0.00000000       0.00000000 </v>
    <v>       0.00000000       0.00000000       2.84005200 </v>
   </varray>
   <i name="volume">     22.90756226 </i>
   <varray name="rec_basis" >
    <v>       0.00000000       0.35210623       0.00000000 </v>
    <v>      -0.35210623       0.00000000       0.00000000 </v>
    <v>       0.00000000       0.00000000       0.35210623 </v>
   </varray>
  </crystal>
  <varray name="positions" >
   <v>       0.00000000       0.00000000       0.00000000 </v>
   <v>      -0.50000000      -0.50000000      -0.50000000 </v>
  </varray>
 </structure>
 <varray name="primitive_index" >
  <v type="int" >        1 </v>
  <v type="int" >        2 </v>
 </varray>
 <kpoints>
  <generation param="Gamma">
   <v type="int" name="divisions">      11       11       11 </v>
   <v name="usershift">      0.00000000       0.00000000       0.00000000 </v>
   <v name="genvec1">      0.09090909       0.00000000       0.00000000 </v>
   <v name="genvec2">      0.00000000       0.09090909       0.00000000 </v>
   <v name="genvec3">      0.00000000       0.00000000       0.09090909 </v>
   <v name="shift">      0.00000000       0.00000000       0.00000000 </v>
  </generation>
  <varray name="kpointlist" >
   <v>       0.00000000       0.00000000       0.00000000 </v>
   <v>       0.09090909       0.00000000       0.00000000 </v>
   <v>       0.18181818       0.00000000       0.00000000 </v>
   <v>       0.27272727       0.00000000       0.00000000 </v>
   <v>       0.36363636       0.00000000       0.00000000 </v>
   <v>       0.45454545       0.00000000       0.00000000 </v>
   <v>       0.09090909       0.09090909       0.00000000 </v>
   <v>       0.18181818       0.09090909       0.00000000 </v>
   <v>       0.27272727       0.09090909       0.00000000 </v>
   <v>       0.36363636       0.09090909       0.00000000 </v>
   <v>       0.45454545       0.09090909       0.00000000 </v>
   <v>      -0.45454545       0.09090909       0.00000000 </v>
   <v>      -0.36363636       0.09090909       0.00000000 </v>
   <v>      -0.27272727       0.09090909       0.00000000 </v>
   <v>      -0.18181818       0.09090909       0.00000000 </v>
   <v>      -0.09090909       0.09090909       0.00000000 </v>
   <v>       0.18181818       0.18181818       0.00000000 </v>
   <v>       0.27272727       0.18181818       0.00000000 </v>
   <v>       0.36363636       0.18181818       0.00000000 </v>
   <v>       0.45454545       0.18181818       0.00000000 </v>
   <v>      -0.45454545       0.18181818       0.00000000 </v>
   <v>      -0.36363636       0.18181818       0.00000000 </v>
   <v>      -0.27272727       0.18181818       0.00000000 </v>
   <v>      -0.18181818       0.18181818       0.00000000 </v>
   <v>       0.27272727       0.27272727       0.00000000 </v>
   <v>       0.36363636       0.27272727       0.00000000 </v>
   <v>       0.45454545       0.27272727       0.00000000 </v>
   <v>      -0.45454545       0.27272727       0.00000000 </v>
   <v>      -0.36363636       0.27272727       0.00000000 </v>
   <v>      -0.27272727       0.27272727       0.00000000 </v>
   <v>       0.36363636       0.36363636       0.00000000 </v>
   <v>       0.45454545       0.36363636       0.00000000 </v>
   <v>      -0.45454545       0.36363636       0.00000000 </v>
   <v>      -0.36363636       0.36363636       0.00000000 </v>
   <v>       0.45454545       0.45454545       0.00000000 </v>
   <v>      -0.45454545       0.45454545       0.00000000 </v>
   <v>       0.18181818       0.18181818       0.09090909 </v>
   <v>       0.27272727       0.18181818       0.09090909 </v>
   <v>       0.36363636       0.18181818       0.09090909 </v>
   <v>       0.45454545       0.18181818       0.09090909 </v>
   <v>       0.27272727       0.27272727       0.09090909 </v>
   <v>       0.36363636       0.27272727       0.09090909 </v>
   <v>       0.45454545       0.27272727       0.09090909 </v>
   <v>      -0.45454545       0.27272727       0.09090909 </v>
   <v>      -0.36363636       0.27272727       0.09090909 </v>
   <v>      -0.27272727       0.27272727       0.09090909 </v>
   <v>       0.36363636       0.36363636       0.09090909 </v>
   <v>       0.45454545       0.36363636       0.09090909 </v>
   <v>      -0.45454545       0.36363636       0.09090909 </v>
   <v>      -0.36363636       0.36363636       0.09090909 </v>
   <v>       0.45454545       0.45454545       0.09090909 </v>
   <v>      -0.45454545       0.45454545       0.09090909 </v>
   <v>       0.36363636       0.36363636       0.18181818 </v>
   <v>       0.45454545       0.36363636       0.18181818 </v>
   <v>       0.45454545       0.45454545       0.18181818 </v>
   <v>      -0.45454545       0.45454545       0.18181818 </v>
  </varray>
  <varray name="weights" >
   <v>       0.00075131 </v>
   <v>       0.00601052 </v>
   <v>       0.00601052 </v>
   <v>       0.00601052 </v>
   <v>       0.00601052 </v>
   <v>       0.00601052 </v>
   <v>       0.00450789 </v>
   <v>       0.01803156 </v>
   <v>       0.01803156 </v>
   <v>       0.01803156 </v>
   <v>       0.01803156 </v>
   <v>       0.01803156 </v>
   <v>       0.01803156 </v>
   <v>       0.01803156 </v>
   <v>       0.01803156 </v>
   <v>       0.00901578 </v>
   <v>       0.00450789 </v>
   <v>       0.01803156 </v>
   <v>       0.01803156 </v>
   <v>       0.01803156 </v>
   <v>       0.01803156 </v>
   <v>       0.01803156 </v>
   <v>       0.01803156 </v>
   <v>       0.00901578 </v>
   <v>       0.00450789 </v>
   <v>       0.01803156 </v>
   <v>       0.01803156 </v>
   <v>       0.01803156 </v>
   <v>       0.01803156 </v>
   <v>       0.00901578 </v>
   <v>       0.00450789 </v>
   <v>       0.01803156 </v>
   <v>       0.01803156 </v>
   <v>       0.00901578 </v>
   <v>       0.00450789 </v>
   <v>       0.00901578 </v>
   <v>       0.01803156 </v>
   <v>       0.03606311 </v>
   <v>       0.03606311 </v>
   <v>       0.03606311 </v>
   <v>       0.01803156 </v>
   <v>       0.03606311 </v>
   <v>       0.03606311 </v>
   <v>       0.03606311 </v>
   <v>       0.03606311 </v>
   <v>       0.01803156 </v>
   <v>       0.01803156 </v>
   <v>       0.03606311 </v>
   <v>       0.03606311 </v>
   <v>       0.01803156 </v>
   <v>       0.01803156 </v>
   <v>       0.01803156 </v>
   <v>       0.01803156 </v>
   <v>       0.03606311 </v>
   <v>       0.01803156 </v>
   <v>       0.01803156 </v>
  </varray>
  <varray name="tetrahedronlist"  type="int" >
   <v type="int" >        4        2        2        2        7 </v>
   <v type="int" >        4        1        2        2        2 </v>
   <v type="int" >        8        1        2        2        7 </v>
   <v type="int" >        8        2        2        7       16 </v>
   <v type="int" >        8        2        2        8       16 </v>
   <v type="int" >        8        2        2        7        8 </v>
   <v type="int" >        8        3        7        8       16 </v>
   <v type="int" >        8        2        3        7       16 </v>
   <v type="int" >       16        2        3        8       16 </v>
   <v type="int" >       16        3        8       15       16 </v>
   <v type="int" >        8        3        9       15       16 </v>
   <v type="int" >        8        3        8        9       16 </v>
   <v type="int" >        8        4        8        9       15 </v>
   <v type="int" >        8        3        4        8       15 </v>
   <v type="int" >       16        3        4        9       15 </v>
   <v type="int" >       16        4        9       14       15 </v>
   <v type="int" >        8        4       10       14       15 </v>
   <v type="int" >        8        4        9       10       15 </v>
   <v type="int" >        8        5        9       10       14 </v>
   <v type="int" >        8        4        5        9       14 </v>
   <v type="int" >       16        4        5       10       14 </v>
   <v type="int" >       16        5       10       13       14 </v>
   <v type="int" >        8        5       11       13       14 </v>
   <v type="int" >        8        5       10       11       14 </v>
   <v type="int" >        8        6       10       11       13 </v>
   <v type="int" >        8        5        6       10       13 </v>
   <v type="int" >       16        5        6       11       13 </v>
   <v type="int" >       24        6       11       12       13 </v>
   <v type="int" >        8        6       12       12       13 </v>
   <v type="int" >       28        6       11       12       12 </v>
   <v type="int" >        8        6        6       11       12 </v>
   <v type="int" >       12        6        6       12       12 </v>
   <v type="int" >        8        5       11       12       13 </v>
   <v type="int" >        8        5        6       11       12 </v>
   <v type="int" >       16        5       10       11       13 </v>
   <v type="int" >        8        4       10       13       14 </v>
   <v type="int" >        8        4        5       10       13 </v>
   <v type="int" >       16        4        9       10       14 </v>
   <v type="int" >        8        3        9       14       15 </v>
   <v type="int" >        8        3        4        9       14 </v>
   <v type="int" >       16        3        8        9       15 </v>
   <v type="int" >        8        2        8       15       16 </v>
   <v type="int" >        8        2        3        8       15 </v>
   <v type="int" >       16        2        7        8       16 </v>
   <v type="int" >        8        1        2        7       16 </v>
   <v type="int" >        4        1        2        7        7 </v>
   <v type="int" >        8        7        8        8       16 </v>
   <v type="int" >        4        7        8       16       16 </v>
   <v type="int" >        4        2        7       16       16 </v>
   <v type="int" >        4        8        8        8       17 </v>
   <v type="int" >        4        7        8        8        8 </v>
   <v type="int" >        8        8        8       17       37 </v>
   <v type="int" >        8        8        8       15       37 </v>
   <v type="int" >       12        8        8       15       16 </v>
   <v type="int" >        8        9       17       18       37 </v>
   <v type="int" >        8        8        9       17       37 </v>
   <v type="int" >       16        8        9       15       37 </v>
   <v type="int" >       16        9       18       37       38 </v>
   <v type="int" >        8        9       14       37       38 </v>
   <v type="int" >        8        9       14       15       37 </v>
   <v type="int" >        8       10       18       19       38 </v>
   <v type="int" >        8        9       10       18       38 </v>
   <v type="int" >       16        9       10       14       38 </v>
   <v type="int" >       16       10       19       38       39 </v>
   <v type="int" >        8       10       13       38       39 </v>
   <v type="int" >        8       10       13       14       38 </v>
   <v type="int" >        8       11       19       20       39 </v>
   <v type="int" >        8       10       11       19       39 </v>
   <v type="int" >       16       10       11       13       39 </v>
   <v type="int" >       16       11       20       39       40 </v>
   <v type="int" >        8       11       12       39       40 </v>
   <v type="int" >        8       11       12       13       39 </v>
   <v type="int" >        8       12       20       21       40 </v>
   <v type="int" >        8       11       12       20       40 </v>
   <v type="int" >       24       11       12       12       40 </v>
   <v type="int" >       32       12       21       40       40 </v>
   <v type="int" >       12       11       12       40       40 </v>
   <v type="int" >        8       13       21       22       40 </v>
   <v type="int" >        8       12       13       21       40 </v>
   <v type="int" >       24       11       12       13       40 </v>
   <v type="int" >       16       13       22       39       40 </v>
   <v type="int" >        8       10       13       39       40 </v>
   <v type="int" >        8       10       11       13       40 </v>
   <v type="int" >        8       14       22       23       39 </v>
   <v type="int" >        8       13       14       22       39 </v>
   <v type="int" >       16       10       13       14       39 </v>
   <v type="int" >       16       14       23       38       39 </v>
   <v type="int" >        8        9       14       38       39 </v>
   <v type="int" >        8        9       10       14       39 </v>
   <v type="int" >        8       15       23       24       38 </v>
   <v type="int" >        8       14       15       23       38 </v>
   <v type="int" >       16        9       14       15       38 </v>
   <v type="int" >       16       15       24       37       38 </v>
   <v type="int" >        8        8       15       37       38 </v>
   <v type="int" >        8        8        9       15       38 </v>
   <v type="int" >        8       15       16       24       37 </v>
   <v type="int" >       16        8       15       16       37 </v>
   <v type="int" >        8        7        8       16       37 </v>
   <v type="int" >        8       17       18       18       37 </v>
   <v type="int" >        4       17       18       37       37 </v>
   <v type="int" >        4        8       17       37       37 </v>
   <v type="int" >        4       18       18       18       25 </v>
   <v type="int" >        4       17       18       18       18 </v>
   <v type="int" >        8       18       18       25       41 </v>
   <v type="int" >        8       18       18       38       41 </v>
   <v type="int" >        8       18       18       37       38 </v>
   <v type="int" >        8       19       25       26       41 </v>
   <v type="int" >        8       18       19       25       41 </v>
   <v type="int" >       16       18       19       38       41 </v>
   <v type="int" >       16       19       26       41       42 </v>
   <v type="int" >        8       19       39       41       42 </v>
   <v type="int" >        8       19       38       39       41 </v>
   <v type="int" >        8       20       26       27       42 </v>
   <v type="int" >        8       19       20       26       42 </v>
   <v type="int" >       16       19       20       39       42 </v>
   <v type="int" >       16       20       27       42       43 </v>
   <v type="int" >        8       20       40       42       43 </v>
   <v type="int" >        8       20       39       40       42 </v>
   <v type="int" >        8       21       27       28       43 </v>
   <v type="int" >        8       20       21       27       43 </v>
   <v type="int" >       16       20       21       40       43 </v>
   <v type="int" >       16       21       28       43       44 </v>
   <v type="int" >       32       21       40       43       44 </v>
   <v type="int" >        8       21       40       40       43 </v>
   <v type="int" >        8       22       28       29       44 </v>
   <v type="int" >        8       21       22       28       44 </v>
   <v type="int" >       24       21       22       40       44 </v>
   <v type="int" >       16       22       29       44       45 </v>
   <v type="int" >        8       22       39       44       45 </v>
   <v type="int" >        8       22       39       40       44 </v>
   <v type="int" >        8       23       29       30       45 </v>
   <v type="int" >        8       22       23       29       45 </v>
   <v type="int" >       16       22       23       39       45 </v>
   <v type="int" >       16       23       30       45       46 </v>
   <v type="int" >        8       23       38       45       46 </v>
   <v type="int" >        8       23       38       39       45 </v>
   <v type="int" >        8       23       24       30       46 </v>
   <v type="int" >       16       23       24       38       46 </v>
   <v type="int" >        8       24       37       38       46 </v>
   <v type="int" >        8       25       26       26       41 </v>
   <v type="int" >        4       25       26       41       41 </v>
   <v type="int" >        4       18       25       41       41 </v>
   <v type="int" >        4       26       26       26       31 </v>
   <v type="int" >        4       25       26       26       26 </v>
   <v type="int" >        8       26       26       31       47 </v>
   <v type="int" >        8       26       26       42       47 </v>
   <v type="int" >        8       26       26       41       42 </v>
   <v type="int" >        8       27       31       32       47 </v>
   <v type="int" >        8       26       27       31       47 </v>
   <v type="int" >       16       26       27       42       47 </v>
   <v type="int" >       16       27       32       47       48 </v>
   <v type="int" >        8       27       43       47       48 </v>
   <v type="int" >        8       27       42       43       47 </v>
   <v type="int" >        8       28       32       33       48 </v>
   <v type="int" >        8       27       28       32       48 </v>
   <v type="int" >       16       27       28       43       48 </v>
   <v type="int" >       16       28       33       48       49 </v>
   <v type="int" >        8       28       44       48       49 </v>
   <v type="int" >        8       28       43       44       48 </v>
   <v type="int" >        8       29       33       34       49 </v>
   <v type="int" >        8       28       29       33       49 </v>
   <v type="int" >       16       28       29       44       49 </v>
   <v type="int" >       16       29       34       49       50 </v>
   <v type="int" >        8       29       45       49       50 </v>
   <v type="int" >        8       29       44       45       49 </v>
   <v type="int" >        8       29       30       34       50 </v>
   <v type="int" >       16       29       30       45       50 </v>
   <v type="int" >        8       30       45       46       50 </v>
   <v type="int" >        8       31       32       32       47 </v>
   <v type="int" >        4       31       32       47       47 </v>
   <v type="int" >        4       26       31       47       47 </v>
   <v type="int" >        4       32       32       32       35 </v>
   <v type="int" >        4       31       32       32       32 </v>
   <v type="int" >        8       32       32       35       51 </v>
   <v type="int" >        8       32       32       48       51 </v>
   <v type="int" >        8       32       32       47       48 </v>
   <v type="int" >        8       33       35       36       51 </v>
   <v type="int" >        8       32       33       35       51 </v>
   <v type="int" >       16       32       33       48       51 </v>
   <v type="int" >       16       33       36       51       52 </v>
   <v type="int" >        8       33       49       51       52 </v>
   <v type="int" >        8       33       48       49       51 </v>
   <v type="int" >        8       33       34       36       52 </v>
   <v type="int" >       16       33       34       49       52 </v>
   <v type="int" >        8       34       49       50       52 </v>
   <v type="int" >        8       35       36       36       51 </v>
   <v type="int" >       12       35       36       51       51 </v>
   <v type="int" >        4       32       35       51       51 </v>
   <v type="int" >        4       35       36       36       36 </v>
   <v type="int" >        8       36       36       51       52 </v>
   <v type="int" >       12        2        8        8       16 </v>
   <v type="int" >        8        2        7        8        8 </v>
   <v type="int" >        8        7        8        8       17 </v>
   <v type="int" >        8        8        8       16       37 </v>
   <v type="int" >        8        8        8       18       37 </v>
   <v type="int" >        8        8        8       17       18 </v>
   <v type="int" >        8        9       15       16       37 </v>
   <v type="int" >        8        8        9       16       37 </v>
   <v type="int" >       16        8        9       18       37 </v>
   <v type="int" >       16        9       15       37       38 </v>
   <v type="int" >        8        9       19       37       38 </v>
   <v type="int" >        8        9       18       19       37 </v>
   <v type="int" >        8       10       14       15       38 </v>
   <v type="int" >        8        9       10       15       38 </v>
   <v type="int" >       16        9       10       19       38 </v>
   <v type="int" >       16       10       14       38       39 </v>
   <v type="int" >        8       10       20       38       39 </v>
   <v type="int" >        8       10       19       20       38 </v>
   <v type="int" >        8       11       13       14       39 </v>
   <v type="int" >        8       10       11       14       39 </v>
   <v type="int" >       16       10       11       20       39 </v>
   <v type="int" >       16       11       13       39       40 </v>
   <v type="int" >        8       11       21       39       40 </v>
   <v type="int" >        8       11       20       21       39 </v>
   <v type="int" >        8       12       12       13       40 </v>
   <v type="int" >       32       11       12       21       40 </v>
   <v type="int" >        8       12       12       40       40 </v>
   <v type="int" >        8       12       22       40       40 </v>
   <v type="int" >       24       12       21       22       40 </v>
   <v type="int" >       16       12       13       22       40 </v>
   <v type="int" >        8       13       23       39       40 </v>
   <v type="int" >        8       13       22       23       40 </v>
   <v type="int" >       16       13       14       23       39 </v>
   <v type="int" >        8       14       24       38       39 </v>
   <v type="int" >        8       14       23       24       39 </v>
   <v type="int" >       16       14       15       24       38 </v>
   <v type="int" >        8       15       15       37       38 </v>
   <v type="int" >        8       15       15       24       38 </v>
   <v type="int" >        8       15       15       16       37 </v>
   <v type="int" >        8        3        8       16       37 </v>
   <v type="int" >        8        3       15       16       37 </v>
   <v type="int" >        4        2        3        8        8 </v>
   <v type="int" >        4        2        7        7       16 </v>
   <v type="int" >        8        7        8       16       17 </v>
   <v type="int" >        4        3        8       16       16 </v>
   <v type="int" >        4        2        3       16       16 </v>
   <v type="int" >        8        8       15       15       37 </v>
   <v type="int" >        8        8       15       15       16 </v>
   <v type="int" >        8       15       15       24       37 </v>
   <v type="int" >        8       14       24       37       38 </v>
   <v type="int" >        8       14       15       24       37 </v>
   <v type="int" >       16       14       23       24       38 </v>
   <v type="int" >        8       13       23       38       39 </v>
   <v type="int" >        8       13       14       23       38 </v>
   <v type="int" >       16       13       22       23       39 </v>
   <v type="int" >        8       12       22       39       40 </v>
   <v type="int" >        8       12       13       22       39 </v>
   <v type="int" >        8       11       21       40       40 </v>
   <v type="int" >       16       11       20       21       40 </v>
   <v type="int" >        8       10       20       39       40 </v>
   <v type="int" >        8       10       11       20       40 </v>
   <v type="int" >       16       10       19       20       39 </v>
   <v type="int" >        8        9       19       38       39 </v>
   <v type="int" >        8        9       10       19       39 </v>
   <v type="int" >       16        9       18       19       38 </v>
   <v type="int" >        8        8       18       37       38 </v>
   <v type="int" >        8        8        9       18       38 </v>
   <v type="int" >       16        8       17       18       37 </v>
   <v type="int" >        8        7        8       17       37 </v>
   <v type="int" >        4        8        9       15       15 </v>
   <v type="int" >        4        3        8       15       15 </v>
   <v type="int" >        4        9       18       37       37 </v>
   <v type="int" >        4        8        9       37       37 </v>
   <v type="int" >        8        9       24       37       38 </v>
   <v type="int" >        8        9       15       24       37 </v>
   <v type="int" >        8       18       38       38       41 </v>
   <v type="int" >        8       18       37       38       38 </v>
   <v type="int" >        8       24       37       38       38 </v>
   <v type="int" >        8       38       38       41       46 </v>
   <v type="int" >        8       23       38       38       46 </v>
   <v type="int" >       12       23       24       38       38 </v>
   <v type="int" >        8       39       41       42       46 </v>
   <v type="int" >        8       38       39       41       46 </v>
   <v type="int" >       16       23       38       39       46 </v>
   <v type="int" >       16       39       42       45       46 </v>
   <v type="int" >        8       22       39       45       46 </v>
   <v type="int" >        8       22       23       39       46 </v>
   <v type="int" >        8       40       42       43       45 </v>
   <v type="int" >        8       39       40       42       45 </v>
   <v type="int" >       16       22       39       40       45 </v>
   <v type="int" >       24       40       43       44       45 </v>
   <v type="int" >        8       21       40       44       45 </v>
   <v type="int" >        8       21       22       40       45 </v>
   <v type="int" >       24       40       43       44       44 </v>
   <v type="int" >        8       40       40       43       44 </v>
   <v type="int" >       24       21       40       40       44 </v>
   <v type="int" >        8       20       40       43       44 </v>
   <v type="int" >        8       20       21       40       44 </v>
   <v type="int" >        8       39       43       44       45 </v>
   <v type="int" >        8       39       40       43       44 </v>
   <v type="int" >       16       20       39       40       43 </v>
   <v type="int" >       16       39       42       43       45 </v>
   <v type="int" >        8       19       39       42       43 </v>
   <v type="int" >        8       19       20       39       43 </v>
   <v type="int" >        8       38       42       45       46 </v>
   <v type="int" >        8       38       39       42       45 </v>
   <v type="int" >       16       19       38       39       42 </v>
   <v type="int" >       16       38       41       42       46 </v>
   <v type="int" >        8       18       38       41       42 </v>
   <v type="int" >        8       18       19       38       42 </v>
   <v type="int" >        8       37       38       41       46 </v>
   <v type="int" >       16       18       37       38       41 </v>
   <v type="int" >        8       17       18       37       41 </v>
   <v type="int" >        4       18       19       38       38 </v>
   <v type="int" >        4        9       18       38       38 </v>
   <v type="int" >        4       19       26       41       41 </v>
   <v type="int" >        4       18       19       41       41 </v>
   <v type="int" >        8       19       41       42       46 </v>
   <v type="int" >        8       19       38       41       46 </v>
   <v type="int" >        8       26       42       42       47 </v>
   <v type="int" >        8       26       41       42       42 </v>
   <v type="int" >        8       41       42       42       46 </v>
   <v type="int" >        8       42       42       47       53 </v>
   <v type="int" >        8       42       42       45       53 </v>
   <v type="int" >        8       42       42       45       46 </v>
   <v type="int" >        8       43       47       48       53 </v>
   <v type="int" >        8       42       43       47       53 </v>
   <v type="int" >       16       42       43       45       53 </v>
   <v type="int" >       16       43       48       53       54 </v>
   <v type="int" >        8       43       44       53       54 </v>
   <v type="int" >        8       43       44       45       53 </v>
   <v type="int" >        8       44       48       49       54 </v>
   <v type="int" >        8       43       44       48       54 </v>
   <v type="int" >       24       43       44       44       54 </v>
   <v type="int" >       24       44       49       54       54 </v>
   <v type="int" >        8       43       44       54       54 </v>
   <v type="int" >        8       45       49       50       54 </v>
   <v type="int" >        8       44       45       49       54 </v>
   <v type="int" >       24       43       44       45       54 </v>
   <v type="int" >       16       45       50       53       54 </v>
   <v type="int" >        8       42       45       53       54 </v>
   <v type="int" >        8       42       43       45       54 </v>
   <v type="int" >        8       45       46       50       53 </v>
   <v type="int" >       16       42       45       46       53 </v>
   <v type="int" >        8       41       42       46       53 </v>
   <v type="int" >        4       26       27       42       42 </v>
   <v type="int" >        4       19       26       42       42 </v>
   <v type="int" >        4       27       32       47       47 </v>
   <v type="int" >        4       26       27       47       47 </v>
   <v type="int" >        8       27       47       48       53 </v>
   <v type="int" >        8       27       42       47       53 </v>
   <v type="int" >        8       32       48       48       51 </v>
   <v type="int" >        8       32       47       48       48 </v>
   <v type="int" >        8       47       48       48       53 </v>
   <v type="int" >        8       48       48       51       55 </v>
   <v type="int" >        8       48       48       54       55 </v>
   <v type="int" >        8       48       48       53       54 </v>
   <v type="int" >        8       49       51       52       55 </v>
   <v type="int" >        8       48       49       51       55 </v>
   <v type="int" >       16       48       49       54       55 </v>
   <v type="int" >       16       49       52       55       56 </v>
   <v type="int" >       32       49       54       55       56 </v>
   <v type="int" >        8       49       54       54       55 </v>
   <v type="int" >        8       49       50       52       56 </v>
   <v type="int" >       24       49       50       54       56 </v>
   <v type="int" >        8       50       53       54       56 </v>
   <v type="int" >        4       32       33       48       48 </v>
   <v type="int" >        4       27       32       48       48 </v>
   <v type="int" >       12       33       36       51       51 </v>
   <v type="int" >        4       32       33       51       51 </v>
   <v type="int" >        8       33       51       52       55 </v>
   <v type="int" >        8       33       48       51       55 </v>
   <v type="int" >        8       36       51       52       52 </v>
   <v type="int" >        8       51       52       52       55 </v>
   <v type="int" >        8       52       52       55       56 </v>
   <v type="int" >        4       33       36       52       52 </v>
   <v type="int" >        8        8       18       18       37 </v>
   <v type="int" >        8        8       17       18       18 </v>
   <v type="int" >        8       17       18       18       25 </v>
   <v type="int" >        8       18       18       37       41 </v>
   <v type="int" >        8       18       18       26       41 </v>
   <v type="int" >        8       18       18       25       26 </v>
   <v type="int" >        8       19       37       38       41 </v>
   <v type="int" >        8       18       19       37       41 </v>
   <v type="int" >       16       18       19       26       41 </v>
   <v type="int" >       16       19       38       41       42 </v>
   <v type="int" >        8       19       27       41       42 </v>
   <v type="int" >        8       19       26       27       41 </v>
   <v type="int" >        8       20       38       39       42 </v>
   <v type="int" >        8       19       20       38       42 </v>
   <v type="int" >       16       19       20       27       42 </v>
   <v type="int" >       16       20       39       42       43 </v>
   <v type="int" >        8       20       28       42       43 </v>
   <v type="int" >        8       20       27       28       42 </v>
   <v type="int" >        8       21       39       40       43 </v>
   <v type="int" >        8       20       21       39       43 </v>
   <v type="int" >       16       20       21       28       43 </v>
   <v type="int" >        8       21       29       43       44 </v>
   <v type="int" >        8       21       28       29       43 </v>
   <v type="int" >        8       22       40       40       44 </v>
   <v type="int" >       16       21       22       29       44 </v>
   <v type="int" >       16       22       40       44       45 </v>
   <v type="int" >        8       22       30       44       45 </v>
   <v type="int" >        8       22       29       30       44 </v>
   <v type="int" >        8       23       39       40       45 </v>
   <v type="int" >        8       22       23       40       45 </v>
   <v type="int" >       16       22       23       30       45 </v>
   <v type="int" >       16       23       39       45       46 </v>
   <v type="int" >        8       23       23       45       46 </v>
   <v type="int" >        8       23       23       30       45 </v>
   <v type="int" >        8       24       38       39       46 </v>
   <v type="int" >        8       23       24       39       46 </v>
   <v type="int" >        8       23       23       24       46 </v>
   <v type="int" >        8       24       38       38       46 </v>
   <v type="int" >        8       14       24       38       46 </v>
   <v type="int" >        8       14       23       24       46 </v>
   <v type="int" >        8       15       37       38       38 </v>
   <v type="int" >       12       15       24       38       38 </v>
   <v type="int" >        8        4        9       15       38 </v>
   <v type="int" >        8        4       14       15       38 </v>
   <v type="int" >        8        3        8        9       37 </v>
   <v type="int" >        8        3        9       15       37 </v>
   <v type="int" >        4        3        9        9       15 </v>
   <v type="int" >        4        3        4        9        9 </v>
   <v type="int" >        4        3        8        8       15 </v>
   <v type="int" >        8        8       15       18       37 </v>
   <v type="int" >        8        8        9       15       18 </v>
   <v type="int" >        8        8       16       17       37 </v>
   <v type="int" >        8       17       18       25       37 </v>
   <v type="int" >        8        9       37       38       41 </v>
   <v type="int" >        8        9       18       37       41 </v>
   <v type="int" >        8       37       38       38       41 </v>
   <v type="int" >        8       38       38       42       46 </v>
   <v type="int" >        8       38       38       41       42 </v>
   <v type="int" >       16       38       39       42       46 </v>
   <v type="int" >        8       39       43       45       46 </v>
   <v type="int" >        8       39       42       43       46 </v>
   <v type="int" >       16       39       40       43       45 </v>
   <v type="int" >        8       40       44       44       45 </v>
   <v type="int" >        8       40       40       44       44 </v>
   <v type="int" >        4       15       16       37       37 </v>
   <v type="int" >        4        4        9       15       15 </v>
   <v type="int" >        4        3        4       15       15 </v>
   <v type="int" >        8        9       14       24       38 </v>
   <v type="int" >        8        9       14       15       24 </v>
   <v type="int" >        8       23       23       38       46 </v>
   <v type="int" >        8       23       23       24       38 </v>
   <v type="int" >        8       23       23       30       46 </v>
   <v type="int" >        8       22       30       45       46 </v>
   <v type="int" >        8       22       23       30       46 </v>
   <v type="int" >       16       22       29       30       45 </v>
   <v type="int" >        8       21       29       44       45 </v>
   <v type="int" >        8       21       22       29       45 </v>
   <v type="int" >       16       21       28       29       44 </v>
   <v type="int" >        8       20       28       43       44 </v>
   <v type="int" >        8       20       21       28       44 </v>
   <v type="int" >       16       20       27       28       43 </v>
   <v type="int" >        8       19       27       42       43 </v>
   <v type="int" >        8       19       20       27       43 </v>
   <v type="int" >       16       19       26       27       42 </v>
   <v type="int" >        8       18       26       41       42 </v>
   <v type="int" >        8       18       19       26       42 </v>
   <v type="int" >       16       18       25       26       41 </v>
   <v type="int" >        8       17       18       25       41 </v>
   <v type="int" >        4        9       10       14       14 </v>
   <v type="int" >        4        4        9       14       14 </v>
   <v type="int" >        4       10       19       38       38 </v>
   <v type="int" >        4        9       10       38       38 </v>
   <v type="int" >        8       10       23       38       39 </v>
   <v type="int" >        8       10       14       23       38 </v>
   <v type="int" >        8       19       39       42       46 </v>
   <v type="int" >        8       19       38       39       46 </v>
   <v type="int" >        8       30       39       45       46 </v>
   <v type="int" >        8       23       30       39       46 </v>
   <v type="int" >        8       42       45       45       53 </v>
   <v type="int" >        8       42       45       45       46 </v>
   <v type="int" >        8       30       45       45       46 </v>
   <v type="int" >        8       45       45       50       53 </v>
   <v type="int" >        8       29       45       45       50 </v>
   <v type="int" >       12       29       30       45       45 </v>
   <v type="int" >        8       44       50       53       54 </v>
   <v type="int" >        8       44       45       50       53 </v>
   <v type="int" >       16       29       44       45       50 </v>
   <v type="int" >       24       44       49       50       54 </v>
   <v type="int" >        8       28       44       49       50 </v>
   <v type="int" >        8       28       29       44       50 </v>
   <v type="int" >        8       43       49       54       54 </v>
   <v type="int" >       32       43       44       49       54 </v>
   <v type="int" >       16       28       43       44       49 </v>
   <v type="int" >       16       43       48       49       54 </v>
   <v type="int" >        8       27       43       48       49 </v>
   <v type="int" >        8       27       28       43       49 </v>
   <v type="int" >        8       42       48       53       54 </v>
   <v type="int" >        8       42       43       48       54 </v>
   <v type="int" >       16       27       42       43       48 </v>
   <v type="int" >       16       42       47       48       53 </v>
   <v type="int" >        8       26       42       47       48 </v>
   <v type="int" >        8       26       27       42       48 </v>
   <v type="int" >        8       41       42       47       53 </v>
   <v type="int" >       16       26       41       42       47 </v>
   <v type="int" >        8       25       26       41       47 </v>
   <v type="int" >        4       19       20       39       39 </v>
   <v type="int" >        4       10       19       39       39 </v>
   <v type="int" >        4       20       27       42       42 </v>
   <v type="int" >        4       19       20       42       42 </v>
   <v type="int" >        8       20       42       43       45 </v>
   <v type="int" >        8       20       39       42       45 </v>
   <v type="int" >        8       27       43       48       53 </v>
   <v type="int" >        8       27       42       43       53 </v>
   <v type="int" >        8       43       50       53       54 </v>
   <v type="int" >        8       43       45       50       53 </v>
   <v type="int" >        8       48       54       54       55 </v>
   <v type="int" >        8       48       53       54       54 </v>
   <v type="int" >        8       50       53       54       54 </v>
   <v type="int" >       24       54       54       55       56 </v>
   <v type="int" >       32       49       54       54       56 </v>
   <v type="int" >        8       49       50       54       54 </v>
   <v type="int" >       32       54       55       56       56 </v>
   <v type="int" >        8       48       54       55       56 </v>
   <v type="int" >        8       48       49       54       56 </v>
   <v type="int" >        8       53       54       55       56 </v>
   <v type="int" >       16       48       53       54       55 </v>
   <v type="int" >        8       47       48       53       55 </v>
   <v type="int" >        4       27       28       43       43 </v>
   <v type="int" >        4       20       27       43       43 </v>
   <v type="int" >        4       28       33       48       48 </v>
   <v type="int" >        4       27       28       48       48 </v>
   <v type="int" >        8       28       48       49       54 </v>
   <v type="int" >        8       28       43       48       54 </v>
   <v type="int" >        8       33       49       52       55 </v>
   <v type="int" >        8       33       48       49       55 </v>
   <v type="int" >        8       49       55       56       56 </v>
   <v type="int" >        8       52       55       56       56 </v>
   <v type="int" >       16       55       56       56       56 </v>
   <v type="int" >       12       33       34       49       49 </v>
   <v type="int" >        4       28       33       49       49 </v>
   <v type="int" >        4       33       34       52       52 </v>
   <v type="int" >        8       34       49       52       56 </v>
   <v type="int" >        8       18       26       26       41 </v>
   <v type="int" >        8       18       25       26       26 </v>
   <v type="int" >        8       25       26       26       31 </v>
   <v type="int" >        8       26       26       41       47 </v>
   <v type="int" >        8       26       26       32       47 </v>
   <v type="int" >        8       26       26       31       32 </v>
   <v type="int" >        8       27       41       42       47 </v>
   <v type="int" >        8       26       27       41       47 </v>
   <v type="int" >       16       26       27       32       47 </v>
   <v type="int" >       16       27       42       47       48 </v>
   <v type="int" >        8       27       33       47       48 </v>
   <v type="int" >        8       27       32       33       47 </v>
   <v type="int" >        8       28       42       43       48 </v>
   <v type="int" >        8       27       28       42       48 </v>
   <v type="int" >       16       27       28       33       48 </v>
   <v type="int" >       16       28       43       48       49 </v>
   <v type="int" >        8       28       34       48       49 </v>
   <v type="int" >        8       28       33       34       48 </v>
   <v type="int" >        8       29       43       44       49 </v>
   <v type="int" >        8       28       29       43       49 </v>
   <v type="int" >       16       28       29       34       49 </v>
   <v type="int" >       16       29       44       49       50 </v>
   <v type="int" >        8       29       29       49       50 </v>
   <v type="int" >        8       29       29       34       49 </v>
   <v type="int" >        8       30       44       45       50 </v>
   <v type="int" >        8       29       30       44       50 </v>
   <v type="int" >        8       29       29       30       50 </v>
   <v type="int" >        8       30       45       45       50 </v>
   <v type="int" >        8       22       30       45       50 </v>
   <v type="int" >        8       22       29       30       50 </v>
   <v type="int" >        8       23       45       45       46 </v>
   <v type="int" >       12       23       30       45       45 </v>
   <v type="int" >        8       13       23       39       45 </v>
   <v type="int" >        8       13       22       23       45 </v>
   <v type="int" >        8       14       38       39       46 </v>
   <v type="int" >        8       14       23       39       46 </v>
   <v type="int" >        8        5       10       14       39 </v>
   <v type="int" >        8        5       13       14       39 </v>
   <v type="int" >        8        4        9       10       38 </v>
   <v type="int" >        8        4       10       14       38 </v>
   <v type="int" >        4        4       10       10       14 </v>
   <v type="int" >        4        4        5       10       10 </v>
   <v type="int" >        4        9        9       14       15 </v>
   <v type="int" >        4        4        9        9       14 </v>
   <v type="int" >        8        9       14       19       38 </v>
   <v type="int" >        8        9       10       14       19 </v>
   <v type="int" >        8       15       18       37       38 </v>
   <v type="int" >        8        9       15       18       38 </v>
   <v type="int" >        8       18       26       38       41 </v>
   <v type="int" >        8       18       19       26       38 </v>
   <v type="int" >        8       18       25       37       41 </v>
   <v type="int" >        8       25       26       31       41 </v>
   <v type="int" >        8        9       19       38       41 </v>
   <v type="int" >        8        9       18       19       41 </v>
   <v type="int" >        8       19       41       42       47 </v>
   <v type="int" >        8       19       26       41       47 </v>
   <v type="int" >        8       38       42       42       46 </v>
   <v type="int" >        8       38       41       42       42 </v>
   <v type="int" >        8       41       42       42       47 </v>
   <v type="int" >        8       42       42       46       53 </v>
   <v type="int" >        8       42       42       48       53 </v>
   <v type="int" >        8       42       42       47       48 </v>
   <v type="int" >        8       43       45       46       53 </v>
   <v type="int" >        8       42       43       46       53 </v>
   <v type="int" >       16       42       43       48       53 </v>
   <v type="int" >       16       43       45       53       54 </v>
   <v type="int" >        8       43       49       53       54 </v>
   <v type="int" >        8       43       48       49       53 </v>
   <v type="int" >        8       44       44       45       54 </v>
   <v type="int" >        8       44       44       54       54 </v>
   <v type="int" >        8       44       50       54       54 </v>
   <v type="int" >       16       44       45       50       54 </v>
   <v type="int" >        8       45       45       53       54 </v>
   <v type="int" >        8       45       45       50       54 </v>
   <v type="int" >        8       45       45       46       53 </v>
   <v type="int" >        8       39       42       46       53 </v>
   <v type="int" >        8       39       45       46       53 </v>
   <v type="int" >        8       10       19       38       42 </v>
   <v type="int" >        8       10       38       39       42 </v>
   <v type="int" >        4       14       15       38       38 </v>
   <v type="int" >        4       15       24       37       37 </v>
   <v type="int" >        8       24       37       38       41 </v>
   <v type="int" >        4        5       10       14       14 </v>
   <v type="int" >        4        4        5       14       14 </v>
   <v type="int" >        8       10       13       23       39 </v>
   <v type="int" >        8       10       13       14       23 </v>
   <v type="int" >        8       22       30       39       45 </v>
   <v type="int" >        8       22       23       30       39 </v>
   <v type="int" >        8       29       29       45       50 </v>
   <v type="int" >        8       29       29       30       45 </v>
   <v type="int" >        8       29       29       34       50 </v>
   <v type="int" >        8       28       34       49       50 </v>
   <v type="int" >        8       28       29       34       50 </v>
   <v type="int" >       16       28       33       34       49 </v>
   <v type="int" >        8       27       33       48       49 </v>
   <v type="int" >        8       27       28       33       49 </v>
   <v type="int" >       16       27       32       33       48 </v>
   <v type="int" >        8       26       32       47       48 </v>
   <v type="int" >        8       26       27       32       48 </v>
   <v type="int" >       16       26       31       32       47 </v>
   <v type="int" >        8       25       26       31       47 </v>
   <v type="int" >        4       10       11       13       13 </v>
   <v type="int" >        4        5       10       13       13 </v>
   <v type="int" >        4       11       20       39       39 </v>
   <v type="int" >        4       10       11       39       39 </v>
   <v type="int" >        8       11       22       39       40 </v>
   <v type="int" >        8       11       13       22       39 </v>
   <v type="int" >        8       20       40       43       45 </v>
   <v type="int" >        8       20       39       40       45 </v>
   <v type="int" >        8       29       40       44       45 </v>
   <v type="int" >        8       22       29       40       45 </v>
   <v type="int" >        8       43       44       50       54 </v>
   <v type="int" >        8       43       44       45       50 </v>
   <v type="int" >        8       34       44       49       50 </v>
   <v type="int" >        8       29       34       44       50 </v>
   <v type="int" >        8       49       49       54       56 </v>
   <v type="int" >        8       49       49       50       54 </v>
   <v type="int" >        8       34       49       49       50 </v>
   <v type="int" >        8       49       49       52       56 </v>
   <v type="int" >        8       33       49       49       52 </v>
   <v type="int" >        8       48       52       55       56 </v>
   <v type="int" >        8       48       49       52       56 </v>
   <v type="int" >       16       33       48       49       52 </v>
   <v type="int" >       16       48       51       52       55 </v>
   <v type="int" >        8       32       48       51       52 </v>
   <v type="int" >        8       32       33       48       52 </v>
   <v type="int" >        8       47       48       51       55 </v>
   <v type="int" >       16       32       47       48       51 </v>
   <v type="int" >        8       31       32       47       51 </v>
   <v type="int" >        4       20       21       40       40 </v>
   <v type="int" >        4       11       20       40       40 </v>
   <v type="int" >        4       21       28       43       43 </v>
   <v type="int" >        4       20       21       43       43 </v>
   <v type="int" >        8       21       43       44       44 </v>
   <v type="int" >        8       28       44       49       54 </v>
   <v type="int" >        8       28       43       44       54 </v>
   <v type="int" >        8       44       44       49       54 </v>
   <v type="int" >        8       49       54       56       56 </v>
   <v type="int" >        8       52       54       55       56 </v>
   <v type="int" >        8       49       52       54       56 </v>
   <v type="int" >       12       55       55       56       56 </v>
   <v type="int" >        8       52       55       55       56 </v>
   <v type="int" >        8       51       52       55       55 </v>
   <v type="int" >        4       28       29       44       44 </v>
   <v type="int" >        4       21       28       44       44 </v>
   <v type="int" >       12       29       34       49       49 </v>
   <v type="int" >        4       28       29       49       49 </v>
   <v type="int" >        8       29       49       50       54 </v>
   <v type="int" >        8       29       44       49       54 </v>
   <v type="int" >        8       34       49       50       56 </v>
   <v type="int" >        8       50       54       55       56 </v>
   <v type="int" >        4       29       34       50       50 </v>
   <v type="int" >        8       26       32       32       47 </v>
   <v type="int" >        8       26       31       32       32 </v>
   <v type="int" >        8       31       32       32       35 </v>
   <v type="int" >        8       32       32       47       51 </v>
   <v type="int" >        8       32       32       36       51 </v>
   <v type="int" >        8       32       32       35       36 </v>
   <v type="int" >        8       33       47       48       51 </v>
   <v type="int" >        8       32       33       47       51 </v>
   <v type="int" >       16       32       33       36       51 </v>
   <v type="int" >       16       33       48       51       52 </v>
   <v type="int" >        8       33       33       51       52 </v>
   <v type="int" >        8       33       33       36       51 </v>
   <v type="int" >        8       34       48       49       52 </v>
   <v type="int" >        8       33       34       48       52 </v>
   <v type="int" >        8       33       33       34       52 </v>
   <v type="int" >        8       34       49       49       52 </v>
   <v type="int" >        8       28       34       49       52 </v>
   <v type="int" >        8       28       33       34       52 </v>
   <v type="int" >        8       29       49       49       50 </v>
   <v type="int" >        8       21       29       44       49 </v>
   <v type="int" >        8       21       28       29       49 </v>
   <v type="int" >        8       22       44       45       50 </v>
   <v type="int" >        8       22       29       44       50 </v>
   <v type="int" >        8       12       22       40       44 </v>
   <v type="int" >        8       12       21       22       44 </v>
   <v type="int" >        8       13       39       40       45 </v>
   <v type="int" >        8       13       22       40       45 </v>
   <v type="int" >        8        6       11       13       40 </v>
   <v type="int" >        8        6       12       13       40 </v>
   <v type="int" >        8        5       10       11       39 </v>
   <v type="int" >        8        5       11       13       39 </v>
   <v type="int" >        4        5       11       11       13 </v>
   <v type="int" >        4        5        6       11       11 </v>
   <v type="int" >        4       10       10       13       14 </v>
   <v type="int" >        4        5       10       10       13 </v>
   <v type="int" >        8       10       13       20       39 </v>
   <v type="int" >        8       10       11       13       20 </v>
   <v type="int" >        8       14       19       38       39 </v>
   <v type="int" >        8       10       14       19       39 </v>
   <v type="int" >        8       19       27       39       42 </v>
   <v type="int" >        8       19       20       27       39 </v>
   <v type="int" >        8       26       38       41       42 </v>
   <v type="int" >        8       19       26       38       42 </v>
   <v type="int" >        8       26       32       42       47 </v>
   <v type="int" >        8       26       27       32       42 </v>
   <v type="int" >        8       26       31       41       47 </v>
   <v type="int" >        8       31       32       35       47 </v>
   <v type="int" >        8       19       27       42       47 </v>
   <v type="int" >        8       19       26       27       47 </v>
   <v type="int" >        8       27       47       48       51 </v>
   <v type="int" >        8       27       32       47       51 </v>
   <v type="int" >        8       42       48       48       53 </v>
   <v type="int" >        8       42       47       48       48 </v>
   <v type="int" >        8       47       48       48       51 </v>
   <v type="int" >        8       48       48       53       55 </v>
   <v type="int" >        8       48       48       52       55 </v>
   <v type="int" >        8       48       48       51       52 </v>
   <v type="int" >        8       49       53       54       55 </v>
   <v type="int" >        8       48       49       53       55 </v>
   <v type="int" >       16       48       49       52       55 </v>
   <v type="int" >        8       49       49       55       56 </v>
   <v type="int" >        8       49       49       52       55 </v>
   <v type="int" >       16       50       54       54       56 </v>
   <v type="int" >        8       49       49       50       56 </v>
   <v type="int" >        8       44       50       54       56 </v>
   <v type="int" >        8       44       49       50       56 </v>
   <v type="int" >        8       45       53       54       54 </v>
   <v type="int" >        8       45       50       54       54 </v>
   <v type="int" >        8       40       43       45       54 </v>
   <v type="int" >        8       40       44       45       54 </v>
   <v type="int" >        8       39       42       43       53 </v>
   <v type="int" >        8       39       43       45       53 </v>
   <v type="int" >        8       11       20       39       43 </v>
   <v type="int" >        8       11       39       40       43 </v>
   <v type="int" >        8       10       19       20       42 </v>
   <v type="int" >        8       10       20       39       42 </v>
   <v type="int" >        4       14       23       39       39 </v>
   <v type="int" >        4       13       14       39       39 </v>
   <v type="int" >        4       14       23       38       38 </v>
   <v type="int" >        8       23       38       42       46 </v>
   <v type="int" >        8       23       38       39       42 </v>
   <v type="int" >        8       24       38       41       46 </v>
   <v type="int" >        8       41       42       46       47 </v>
   <v type="int" >        8       20       42       43       48 </v>
   <v type="int" >        8       20       27       42       48 </v>
   <v type="int" >        8       43       53       54       55 </v>
   <v type="int" >        8       43       48       53       55 </v>
   <v type="int" >        8       53       54       54       55 </v>
   <v type="int" >       16       54       54       56       56 </v>
   <v type="int" >        4       23       24       46       46 </v>
   <v type="int" >        4        6       11       13       13 </v>
   <v type="int" >        4        5        6       13       13 </v>
   <v type="int" >        8       11       12       22       40 </v>
   <v type="int" >        8       11       12       13       22 </v>
   <v type="int" >        8       21       29       40       44 </v>
   <v type="int" >        8       21       22       29       40 </v>
   <v type="int" >        8       28       34       44       49 </v>
   <v type="int" >        8       28       29       34       44 </v>
   <v type="int" >        8       33       33       49       52 </v>
   <v type="int" >        8       33       33       34       49 </v>
   <v type="int" >        8       33       33       36       52 </v>
   <v type="int" >        8       32       36       51       52 </v>
   <v type="int" >        8       32       33       36       52 </v>
   <v type="int" >       16       32       35       36       51 </v>
   <v type="int" >        8       31       32       35       51 </v>
   <v type="int" >        4       11       12       12       12 </v>
   <v type="int" >        8       12       12       21       40 </v>
   <v type="int" >        8       21       40       44       44 </v>
   <v type="int" >        8       28       40       43       44 </v>
   <v type="int" >        8       21       28       40       44 </v>
   <v type="int" >        8       43       44       44       49 </v>
   <v type="int" >        8       33       43       48       49 </v>
   <v type="int" >        8       28       33       43       49 </v>
   <v type="int" >        8       48       52       54       55 </v>
   <v type="int" >        8       48       49       52       54 </v>
   <v type="int" >        8       36       48       51       52 </v>
   <v type="int" >        8       33       36       48       52 </v>
   <v type="int" >        8       51       51       52       55 </v>
   <v type="int" >        8       36       51       51       52 </v>
   <v type="int" >        4       21       22       40       40 </v>
   <v type="int" >        4       22       29       44       44 </v>
   <v type="int" >        4       21       22       44       44 </v>
   <v type="int" >        8       22       43       44       45 </v>
   <v type="int" >        8       22       40       43       44 </v>
   <v type="int" >        8       29       45       50       54 </v>
   <v type="int" >        8       29       44       45       54 </v>
   <v type="int" >        8       45       48       53       54 </v>
   <v type="int" >        8       43       45       48       54 </v>
   <v type="int" >        8       50       53       54       55 </v>
   <v type="int" >        8       48       51       53       55 </v>
   <v type="int" >        4       22       29       45       45 </v>
   <v type="int" >        4       29       30       50       50 </v>
   <v type="int" >        8       30       45       50       53 </v>
   <v type="int" >        8       32       36       36       51 </v>
   <v type="int" >        8       32       35       36       36 </v>
   <v type="int" >        4       35       35       36       36 </v>
   <v type="int" >        4       36       36       51       51 </v>
   <v type="int" >        8       33       51       51       52 </v>
   <v type="int" >        8       27       33       48       51 </v>
   <v type="int" >        8       27       32       33       51 </v>
   <v type="int" >        8       28       48       49       52 </v>
   <v type="int" >        8       28       33       48       52 </v>
   <v type="int" >        8       20       28       43       48 </v>
   <v type="int" >        8       20       27       28       48 </v>
   <v type="int" >        8       21       43       44       49 </v>
   <v type="int" >        8       21       28       43       49 </v>
   <v type="int" >        8       11       21       40       43 </v>
   <v type="int" >        8       11       20       21       43 </v>
   <v type="int" >        8       12       40       40       44 </v>
   <v type="int" >        8       12       21       40       44 </v>
   <v type="int" >        8        6       12       12       40 </v>
   <v type="int" >        8        6       11       12       40 </v>
   <v type="int" >        4        6       12       12       12 </v>
   <v type="int" >        4       11       11       12       13 </v>
   <v type="int" >        4        6       11       11       12 </v>
   <v type="int" >        8       11       12       12       21 </v>
   <v type="int" >        8       13       20       39       40 </v>
   <v type="int" >        8       11       13       20       40 </v>
   <v type="int" >        8       20       28       40       43 </v>
   <v type="int" >        8       20       21       28       40 </v>
   <v type="int" >        8       27       39       42       43 </v>
   <v type="int" >        8       20       27       39       43 </v>
   <v type="int" >        8       27       33       43       48 </v>
   <v type="int" >        8       27       28       33       43 </v>
   <v type="int" >        8       32       42       47       48 </v>
   <v type="int" >        8       27       32       42       48 </v>
   <v type="int" >        8       32       36       48       51 </v>
   <v type="int" >        8       32       33       36       48 </v>
   <v type="int" >        8       32       35       47       51 </v>
   <v type="int" >        8       35       35       36       51 </v>
   <v type="int" >        8       48       52       52       55 </v>
   <v type="int" >        8       48       51       52       52 </v>
   <v type="int" >        4       51       51       52       52 </v>
   <v type="int" >        4       52       52       55       55 </v>
   <v type="int" >        8       49       55       55       56 </v>
   <v type="int" >        8       49       52       55       55 </v>
   <v type="int" >        8       43       49       54       55 </v>
   <v type="int" >        8       43       48       49       55 </v>
   <v type="int" >        8       44       54       54       56 </v>
   <v type="int" >        8       44       49       54       56 </v>
   <v type="int" >        8       40       44       44       54 </v>
   <v type="int" >        8       40       43       44       54 </v>
   <v type="int" >        4       13       22       40       40 </v>
   <v type="int" >        4       12       13       40       40 </v>
   <v type="int" >        4       22       23       39       39 </v>
   <v type="int" >        4       13       22       39       39 </v>
   <v type="int" >        8       22       39       43       45 </v>
   <v type="int" >        8       22       39       40       43 </v>
   <v type="int" >        8       23       42       45       46 </v>
   <v type="int" >        8       23       39       42       45 </v>
   <v type="int" >        8       42       45       48       53 </v>
   <v type="int" >        8       42       43       45       48 </v>
   <v type="int" >        8       42       46       47       53 </v>
   <v type="int" >        8       47       48       51       53 </v>
   <v type="int" >        8       54       56       56       56 </v>
   <v type="int" >        2       56       56       56       56 </v>
   <v type="int" >        4       22       23       45       45 </v>
   <v type="int" >        4       23       30       46       46 </v>
   <v type="int" >        8       30       45       46       53 </v>
  </varray>
  <i name="volumeweight">      0.00012522 </i>
 </kpoints>
 <parameters>
  <separator name="general" >
   <i type="string" name="SYSTEM">unknown system</i>
   <i type="logical" name="LCOMPAT"> F  </i>
  </separator>
  <separator name="electronic" >
   <i type="string" name="PREC">accura</i>
   <i name="ENMAX">    520.00000000</i>
   <i name="ENAUG">    578.34200000</i>
   <i name="EDIFF">      0.00000100</i>
   <i type="int" name="IALGO">    38</i>
   <i type="int" name="IWAVPR">    10</i>
   <i type="int" name="NBANDS">    34</i>
   <i name="NELECT">     56.00000000</i>
   <i type="int" name="TURBO">     0</i>
   <i type="int" name="IRESTART">     0</i>
   <i type="int" name="NREBOOT">     0</i>
   <i type="int" name="NMIN">     0</i>
   <i name="EREF">      0.00000000</i>
   <separator name="electronic smearing" >
    <i type="int" name="ISMEAR">    -5</i>
    <i name="SIGMA">      0.05000000</i>
    <i name="KSPACING">      0.50000000</i>
    <i type="logical" name="KGAMMA"> T  </i>
   </separator>
   <separator name="electronic projectors" >
    <i type="logical" name="LREAL"> T  </i>
    <v name="ROPT">     -0.00025000</v>
    <i type="int" name="LMAXPAW">  -100</i>
    <i type="int" name="LMAXMIX">     4</i>
    <i type="logical" name="NLSPLINE"> F  </i>
   </separator>
   <separator name="electronic startup" >
    <i type="int" name="ISTART">     0</i>
    <i type="int" name="ICHARG">     2</i>
    <i type="int" name="INIWAV">     1</i>
   </separator>
   <separator name="electronic spin" >
    <i type="int" name="ISPIN">     2</i>
    <i type="logical" name="LNONCOLLINEAR"> F  </i>
    <v name="MAGMOM">     -5.00000000     -5.00000000      5.00000000      5.00000000</v>
    <i name="NUPDOWN">     -1.00000000</i>
    <i type="logical" name="LSORBIT"> F  </i>
    <v name="SAXIS">      0.00000000      0.00000000      1.00000000</v>
    <i type="logical" name="LSPIRAL"> F  </i>
    <v name="QSPIRAL">      0.00000000      0.00000000      0.00000000</v>
    <i type="logical" name="LZEROZ"> F  </i>
   </separator>
   <separator name="electronic exchange-correlation" >
    <i type="logical" name="LASPH"> T  </i>
    <i type="logical" name="LMETAGGA"> F  </i>
   </separator>
   <separator name="electronic convergence" >
    <i type="int" name="NELM">   120</i>
    <i type="int" name="NELMDL">    -5</i>
    <i type="int" name="NELMIN">     2</i>
    <i name="ENINI">    520.00000000</i>
    <separator name="electronic convergence detail" >
     <i type="logical" name="LDIAG"> T  </i>
     <i type="logical" name="LSUBROT"> F  </i>
     <i name="WEIMIN">      0.00000000</i>
     <i name="EBREAK">      0.00000001</i>
     <i name="DEPER">      0.30000000</i>
     <i type="int" name="NRMM">     4</i>
     <i name="TIME">      0.40000000</i>
    </separator>
   </separator>
   <separator name="electronic mixer" >
    <i name="AMIX">      0.40000000</i>
    <i name="BMIX">      1.00000000</i>
    <i name="AMIN">      0.10000000</i>
    <i name="AMIX_MAG">      1.60000000</i>
    <i name="BMIX_MAG">      1.00000000</i>
    <separator name="electronic mixer details" >
     <i type="int" name="IMIX">     4</i>
     <i type="logical" name="MIXFIRST"> F  </i>
     <i type="int" name="MAXMIX">   -45</i>
     <i name="WC">    100.00000000</i>
     <i type="int" name="INIMIX">     1</i>
     <i type="int" name="MIXPRE">     1</i>
     <i type="int" name="MREMOVE">     5</i>
    </separator>
   </separator>
   <separator name="electronic dipolcorrection" >
    <i type="logical" name="LDIPOL"> F  </i>
    <i type="logical" name="LMONO"> F  </i>
    <i type="int" name="IDIPOL">     0</i>
    <i name="EPSILON">      1.00000000</i>
    <v name="DIPOL">   -100.00000000   -100.00000000   -100.00000000</v>
    <i name="EFIELD">      0.00000000</i>
   </separator>
  </separator>
  <separator name="grids" >
   <i type="int" name="NGX">    30</i>
   <i type="int" name="NGY">    30</i>
   <i type="int" name="NGZ">    30</i>
   <i type="int" name="NGXF">    60</i>
   <i type="int" name="NGYF">    60</i>
   <i type="int" name="NGZF">    60</i>
   <i type="logical" name="ADDGRID"> F  </i>
  </separator>
  <separator name="ionic" >
   <i type="int" name="NSW">     0</i>
   <i type="int" name="IBRION">    -1</i>
   <i type="int" name="MDALGO">     0</i>
   <i type="int" name="ISIF">     3</i>
   <i name="PSTRESS">      0.00000000</i>
   <i name="EDIFFG">      0.00001000</i>
   <i type="int" name="NFREE">     0</i>
   <i name="POTIM">      0.50000000</i>
   <i name="SMASS">     -3.00000000</i>
   <i name="SCALEE">      1.00000000</i>
  </separator>
  <separator name="ionic md" >
   <i name="TEBEG">      0.00010000</i>
   <i name="TEEND">      0.00010000</i>
   <i type="int" name="NBLOCK">     1</i>
   <i type="int" name="KBLOCK">     1</i>
   <i type="int" name="NPACO">   256</i>
   <i name="APACO">     16.00000000</i>
  </separator>
  <separator name="symmetry" >
   <i type="int" name="ISYM">     2</i>
   <i name="SYMPREC">      0.00000001</i>
  </separator>
  <separator name="dos" >
   <i type="int" name="LORBIT">    11</i>
   <v name="RWIGS">     -1.00000000</v>
   <i type="int" name="NEDOS">   301</i>
   <i name="EMIN">     10.00000000</i>
   <i name="EMAX">    -10.00000000</i>
   <i name="EFERMI">      0.00000000</i>
  </separator>
  <separator name="writing" >
   <i type="int" name="NWRITE">     2</i>
   <i type="logical" name="LWAVE"> F  </i>
   <i type="logical" name="LDOWNSAMPLE"> F  </i>
   <i type="logical" name="LCHARG"> T  </i>
   <i type="logical" name="LPARD"> F  </i>
   <i type="logical" name="LVTOT"> F  </i>
   <i type="logical" name="LVHAR"> F  </i>
   <i type="logical" name="LELF"> F  </i>
   <i type="logical" name="LOPTICS"> F  </i>
   <v name="STM">      0.00000000      0.00000000      0.00000000      0.00000000      0.00000000      0.00000000      0.00000000</v>
  </separator>
  <separator name="performance" >
   <i type="int" name="NPAR">     2</i>
   <i type="int" name="NSIM">     4</i>
   <i type="int" name="NBLK">    -1</i>
   <i type="logical" name="LPLANE"> T  </i>
   <i type="logical" name="LSCALAPACK"> T  </i>
   <i type="logical" name="LSCAAWARE"> F  </i>
   <i type="logical" name="LSCALU"> F  </i>
   <i type="logical" name="LASYNC"> F  </i>
   <i type="logical" name="LORBITALREAL"> F  </i>
  </separator>
  <separator name="miscellaneous" >
   <i type="int" name="IDIOT">     3</i>
   <i type="int" name="ISPECIAL">     0</i>
   <i type="logical" name="LMUSIC"> F  </i>
   <v name="POMASS">     55.84700000</v>
   <v name="DARWINR">      0.00000000</v>
   <v name="DARWINV">      1.00000000</v>
   <i type="logical" name="LCORR"> T  </i>
  </separator>
  <i type="logical" name="GGA_COMPAT"> T  </i>
  <i type="logical" name="LBERRY"> F  </i>
  <i type="int" name="ICORELEVEL">     0</i>
  <i type="logical" name="LDAU"> T  </i>
  <v type="int" name="LDAUTYPE">     2</v>
  <v type="int" name="LDAUL">     2</v>
  <v name="LDAUU">      5.30000000</v>
  <v name="LDAUJ">      0.00000000</v>
  <i type="int" name="LDAUPRINT">     1</i>
  <i type="int" name="I_CONSTRAINED_M">     0</i>
  <separator name="electronic exchange-correlation" >
   <i type="string" name="GGA">--</i>
   <i type="int" name="VOSKOWN">     0</i>
   <i type="logical" name="LHFCALC"> F  </i>
   <i type="string" name="PRECFOCK"></i>
   <i type="logical" name="LSYMGRAD"> F  </i>
   <i type="logical" name="LHFONE"> F  </i>
   <i type="logical" name="LRHFCALC"> F  </i>
   <i type="logical" name="LTHOMAS"> F  </i>
   <i type="logical" name="LMODELHF"> F  </i>
   <i name="ENCUT4O">     -1.00000000</i>
   <i type="int" name="EXXOEP">     0</i>
   <i type="int" name="FOURORBIT">     0</i>
   <i name="AEXX">      0.00000000</i>
   <i name="HFALPHA">      0.00000000</i>
   <i name="MCALPHA">      0.00000000</i>
   <i name="ALDAX">      1.00000000</i>
   <i name="AGGAX">      1.00000000</i>
   <i name="ALDAC">      1.00000000</i>
   <i name="AGGAC">      1.00000000</i>
   <i type="int" name="NKREDX">     1</i>
   <i type="int" name="NKREDY">     1</i>
   <i type="int" name="NKREDZ">     1</i>
   <i type="logical" name="SHIFTRED"> F  </i>
   <i type="logical" name="ODDONLY"> F  </i>
   <i type="logical" name="EVENONLY"> F  </i>
   <i type="int" name="LMAXFOCK">     0</i>
   <i type="int" name="NMAXFOCKAE">     0</i>
   <i type="logical" name="LFOCKAEDFT"> F  </i>
   <i name="HFSCREEN">      0.00000000</i>
   <i name="HFSCREENC">      0.00000000</i>
   <i type="int" name="NBANDSGWLOW">     0</i>
  </separator>
  <separator name="vdW DFT" >
   <i type="logical" name="LUSE_VDW"> F  </i>
   <i name="Zab_VDW">     -0.84910000</i>
   <i name="PARAM1">      0.12340000</i>
   <i name="PARAM2">      1.00000000</i>
   <i name="PARAM3">      0.00000000</i>
  </separator>
  <separator name="model GW" >
   <i type="int" name="MODEL_GW">     0</i>
   <i name="MODEL_EPS0">      6.87226868</i>
   <i name="MODEL_ALPHA">      1.00000000</i>
  </separator>
  <separator name="linear response parameters" >
   <i type="logical" name="LEPSILON"> F  </i>
   <i type="logical" name="LRPA"> F  </i>
   <i type="logical" name="LNABLA"> F  </i>
   <i type="logical" name="LVEL"> F  </i>
   <i type="int" name="KINTER">     0</i>
   <i name="CSHIFT">      0.10000000</i>
   <i name="OMEGAMAX">     -1.00000000</i>
   <i name="DEG_THRESHOLD">      0.00200000</i>
   <i name="RTIME">     -0.10000000</i>
   <i name="WPLASMAI">      0.00000000</i>
   <v name="DFIELD">      0.00000000      0.00000000      0.00000000</v>
   <v name="WPLASMA">      0.00000000      0.00000000      0.00000000      0.00000000      0.00000000      0.00000000      0.00000000      0.00000000      0.00000000</v>
  </separator>
  <separator name="orbital magnetization" >
   <i type="logical" name="NUCIND"> F  </i>
   <v name="MAGPOS">      0.00000000      0.00000000      0.00000000</v>
   <i type="logical" name="LNICSALL"> T  </i>
   <i type="logical" name="ORBITALMAG"> F  </i>
   <i type="logical" name="LMAGBLOCH"> F  </i>
   <i type="logical" name="LCHIMAG"> F  </i>
   <i type="logical" name="LGAUGE"> T  </i>
   <i type="int" name="MAGATOM">     0</i>
   <v name="MAGDIPOL">      0.00000000      0.00000000      0.00000000</v>
   <v name="AVECCONST">      0.00000000      0.00000000      0.00000000</v>
  </separator>
  <separator name="response functions" >
   <i type="logical" name="LADDER"> F  </i>
   <i type="logical" name="LRPAFORCE"> F  </i>
   <i type="logical" name="LFXC"> F  </i>
   <i type="logical" name="LHARTREE"> T  </i>
   <i type="int" name="IBSE">     0</i>
   <v type="int" name="KPOINT">    -1     0     0     0</v>
   <i type="logical" name="LTCTE"> F  </i>
   <i type="logical" name="LTETE"> F  </i>
   <i type="logical" name="LTRIPLET"> F  </i>
   <i type="logical" name="LFXCEPS"> F  </i>
   <i type="logical" name="LFXHEG"> F  </i>
[...]
        <r>  0.0133  0.0184  0.0000  0.0129  0.1400  0.0000  0.0023  0.0000  0.0172 </r>
       </set>
       <set comment="band 22">
        <r>  0.0112  0.0251  0.0000  0.0145  0.0797  0.0000  0.0017  0.0000  0.0602 </r>
        <r>  0.0112  0.0251  0.0000  0.0145  0.0797  0.0000  0.0017  0.0000  0.0603 </r>
        <r>  0.0112  0.0251  0.0000  0.0145  0.0797  0.0000  0.0017  0.0000  0.0603 </r>
        <r>  0.0112  0.0251  0.0000  0.0145  0.0797  0.0000  0.0017  0.0000  0.0602 </r>
       </set>
       <set comment="band 23">
        <r>  0.0083  0.0001  0.0375  0.0199  0.0302  0.0349  0.0155  0.0330  0.0072 </r>
        <r>  0.0122  0.0001  0.0256  0.0291  0.0442  0.0239  0.0228  0.0226  0.0106 </r>
        <r>  0.0083  0.0001  0.0375  0.0199  0.0302  0.0350  0.0156  0.0330  0.0072 </r>
        <r>  0.0122  0.0001  0.0256  0.0291  0.0442  0.0239  0.0227  0.0226  0.0106 </r>
       </set>
       <set comment="band 24">
        <r>  0.0122  0.0001  0.0256  0.0291  0.0442  0.0239  0.0227  0.0226  0.0106 </r>
        <r>  0.0083  0.0001  0.0375  0.0199  0.0302  0.0350  0.0156  0.0330  0.0072 </r>
        <r>  0.0122  0.0001  0.0256  0.0291  0.0442  0.0239  0.0228  0.0226  0.0106 </r>
        <r>  0.0083  0.0001  0.0375  0.0199  0.0303  0.0349  0.0155  0.0330  0.0072 </r>
       </set>
       <set comment="band 25">
        <r>  0.0000  0.0000  0.0015  0.0000  0.0000  0.0920  0.0000  0.1505  0.0000 </r>
        <r>  0.0000  0.0000  0.0015  0.0000  0.0000  0.0920  0.0000  0.1505  0.0000 </r>
        <r>  0.0000  0.0000  0.0015  0.0000  0.0000  0.0920  0.0000  0.1505  0.0000 </r>
        <r>  0.0000  0.0000  0.0015  0.0000  0.0000  0.0920  0.0000  0.1505  0.0000 </r>
       </set>
       <set comment="band 26">
        <r>  0.0000  0.0000  0.0012  0.0000  0.0000  0.0918  0.0000  0.1523  0.0000 </r>
        <r>  0.0000  0.0000  0.0012  0.0000  0.0000  0.0918  0.0000  0.1523  0.0000 </r>
        <r>  0.0000  0.0000  0.0012  0.0000  0.0000  0.0918  0.0000  0.1523  0.0000 </r>
        <r>  0.0000  0.0000  0.0012  0.0000  0.0000  0.0918  0.0000  0.1523  0.0000 </r>
       </set>
       <set comment="band 27">
        <r>  0.0001  0.0003  0.0000  0.0000  0.0409  0.0000  0.1575  0.0000  0.0231 </r>
        <r>  0.0001  0.0003  0.0000  0.0000  0.0418  0.0000  0.1583  0.0000  0.0233 </r>
        <r>  0.0001  0.0003  0.0000  0.0000  0.0418  0.0000  0.1583  0.0000  0.0233 </r>
        <r>  0.0001  0.0003  0.0000  0.0000  0.0409  0.0000  0.1575  0.0000  0.0231 </r>
       </set>
       <set comment="band 28">
        <r>  0.0047  0.0009  0.0063  0.0099  0.1295  0.0530  0.0215  0.0078  0.0034 </r>
        <r>  0.0022  0.0004  0.0136  0.0046  0.0597  0.1146  0.0100  0.0168  0.0016 </r>
        <r>  0.0047  0.0009  0.0063  0.0099  0.1290  0.0529  0.0214  0.0078  0.0034 </r>
        <r>  0.0022  0.0004  0.0136  0.0046  0.0597  0.1147  0.0098  0.0168  0.0015 </r>
       </set>
       <set comment="band 29">
        <r>  0.0022  0.0004  0.0136  0.0046  0.0600  0.1147  0.0101  0.0168  0.0016 </r>
        <r>  0.0047  0.0009  0.0063  0.0099  0.1288  0.0529  0.0211  0.0078  0.0033 </r>
        <r>  0.0022  0.0004  0.0136  0.0046  0.0594  0.1146  0.0097  0.0168  0.0015 </r>
        <r>  0.0047  0.0009  0.0063  0.0099  0.1297  0.0530  0.0218  0.0078  0.0034 </r>
       </set>
       <set comment="band 30">
        <r>  0.0000  0.0000  0.0000  0.0001  0.0215  0.0000  0.1653  0.0000  0.0378 </r>
        <r>  0.0000  0.0000  0.0000  0.0001  0.0216  0.0000  0.1653  0.0000  0.0379 </r>
        <r>  0.0000  0.0000  0.0000  0.0001  0.0216  0.0000  0.1653  0.0000  0.0379 </r>
        <r>  0.0000  0.0000  0.0000  0.0001  0.0215  0.0000  0.1653  0.0000  0.0378 </r>
       </set>
       <set comment="band 31">
        <r>  0.0000  0.0000  0.0000  0.0005  0.0000  0.0005  0.0110  0.0359  0.1983 </r>
        <r>  0.0000  0.0000  0.0000  0.0004  0.0000  0.0006  0.0092  0.0434  0.1642 </r>
        <r>  0.0000  0.0000  0.0000  0.0005  0.0000  0.0005  0.0111  0.0359  0.1985 </r>
        <r>  0.0000  0.0000  0.0000  0.0004  0.0000  0.0006  0.0091  0.0434  0.1640 </r>
       </set>
       <set comment="band 32">
        <r>  0.0000  0.0000  0.0000  0.0004  0.0000  0.0006  0.0091  0.0434  0.1640 </r>
        <r>  0.0000  0.0000  0.0000  0.0005  0.0000  0.0005  0.0111  0.0359  0.1985 </r>
        <r>  0.0000  0.0000  0.0000  0.0004  0.0000  0.0006  0.0092  0.0434  0.1642 </r>
        <r>  0.0000  0.0000  0.0000  0.0005  0.0000  0.0005  0.0110  0.0359  0.1983 </r>
       </set>
       <set comment="band 33">
        <r>  0.0104  0.0051  0.0000  0.0012  0.0002  0.0000  0.0432  0.0000  0.1793 </r>
        <r>  0.0103  0.0051  0.0000  0.0013  0.0002  0.0000  0.0437  0.0000  0.1786 </r>
        <r>  0.0103  0.0051  0.0000  0.0013  0.0002  0.0000  0.0437  0.0000  0.1786 </r>
        <r>  0.0104  0.0051  0.0000  0.0012  0.0002  0.0000  0.0432  0.0000  0.1793 </r>
       </set>
       <set comment="band 34">
        <r>  0.0092  0.0001  0.0124  0.0086  0.0009  0.0005  0.2013  0.0015  0.0095 </r>
        <r>  0.0082  0.0001  0.0140  0.0076  0.0008  0.0006  0.1778  0.0017  0.0086 </r>
        <r>  0.0093  0.0001  0.0124  0.0085  0.0009  0.0005  0.2004  0.0015  0.0097 </r>
        <r>  0.0082  0.0001  0.0140  0.0076  0.0008  0.0006  0.1787  0.0017  0.0084 </r>
       </set>
      </set>
      <set comment="kpoint 56">
       <set comment="band 1">
        <r>  0.0000  0.0000  0.1352  0.1117  0.0000  0.0000  0.0000  0.0000  0.0000 </r>
        <r>  0.0000  0.0000  0.1357  0.1132  0.0000  0.0000  0.0000  0.0000  0.0000 </r>
        <r>  0.0000  0.0000  0.1357  0.1132  0.0000  0.0000  0.0000  0.0000  0.0000 </r>
        <r>  0.0000  0.0000  0.1352  0.1117  0.0000  0.0000  0.0000  0.0000  0.0000 </r>
       </set>
       <set comment="band 2">
        <r>  0.0000  0.0000  0.1346  0.1089  0.0000  0.0000  0.0000  0.0000  0.0000 </r>
        <r>  0.0000  0.0000  0.1363  0.1160  0.0000  0.0000  0.0000  0.0000  0.0000 </r>
        <r>  0.0000  0.0000  0.1363  0.1160  0.0000  0.0000  0.0000  0.0000  0.0000 </r>
        <r>  0.0000  0.0000  0.1346  0.1090  0.0000  0.0000  0.0000  0.0000  0.0000 </r>
       </set>
       <set comment="band 3">
        <r>  0.0000  0.1348  0.0020  0.1094  0.0000  0.0000  0.0000  0.0000  0.0000 </r>
        <r>  0.0000  0.1502  0.0021  0.0978  0.0000  0.0000  0.0000  0.0000  0.0000 </r>
        <r>  0.0000  0.1355  0.0022  0.1083  0.0000  0.0000  0.0000  0.0000  0.0000 </r>
        <r>  0.0000  0.1495  0.0018  0.0985  0.0000  0.0000  0.0000  0.0000  0.0000 </r>
       </set>
       <set comment="band 4">
        <r>  0.0000  0.1494  0.0025  0.1014  0.0000  0.0000  0.0000  0.0000  0.0000 </r>
        <r>  0.0000  0.1355  0.0016  0.1054  0.0000  0.0000  0.0000  0.0000  0.0000 </r>
        <r>  0.0000  0.1503  0.0014  0.0949  0.0000  0.0000  0.0000  0.0000  0.0000 </r>
        <r>  0.0000  0.1347  0.0027  0.1123  0.0000  0.0000  0.0000  0.0000  0.0000 </r>
       </set>
       <set comment="band 5">
        <r>  0.0000  0.2490  0.0000  0.0000  0.0000  0.0000  0.0000  0.0000  0.0000 </r>
        <r>  0.0000  0.2492  0.0000  0.0000  0.0000  0.0000  0.0000  0.0000  0.0000 </r>
        <r>  0.0000  0.2492  0.0000  0.0000  0.0000  0.0000  0.0000  0.0000  0.0000 </r>
        <r>  0.0000  0.2490  0.0000  0.0000  0.0000  0.0000  0.0000  0.0000  0.0000 </r>
       </set>
       <set comment="band 6">
        <r>  0.0000  0.0007  0.0163  0.0005  0.0000  0.0001  0.0000  0.0000  0.0000 </r>
        <r>  0.0000  0.0000  0.4651  0.0161  0.0000  0.0000  0.0000  0.0000  0.0000 </r>
        <r>  0.0000  0.0007  0.0164  0.0006  0.0000  0.0001  0.0000  0.0000  0.0000 </r>
        <r>  0.0000  0.0000  0.4642  0.0160  0.0000  0.0000  0.0000  0.0000  0.0000 </r>
       </set>
       <set comment="band 7">
        <r>  0.0000  0.0000  0.4642  0.0161  0.0000  0.0000  0.0000  0.0000  0.0000 </r>
        <r>  0.0000  0.0007  0.0163  0.0005  0.0000  0.0001  0.0000  0.0000  0.0000 </r>
        <r>  0.0000  0.0000  0.4650  0.0160  0.0000  0.0000  0.0000  0.0000  0.0000 </r>
        <r>  0.0000  0.0007  0.0163  0.0006  0.0000  0.0001  0.0000  0.0000  0.0000 </r>
       </set>
       <set comment="band 8">
        <r>  0.0000  0.2489  0.0000  0.0000  0.0000  0.0000  0.0000  0.0000  0.0000 </r>
        <r>  0.0000  0.2496  0.0000  0.0000  0.0000  0.0000  0.0000  0.0000  0.0000 </r>
        <r>  0.0000  0.2496  0.0000  0.0000  0.0000  0.0000  0.0000  0.0000  0.0000 </r>
        <r>  0.0000  0.2488  0.0000  0.0000  0.0000  0.0000  0.0000  0.0000  0.0000 </r>
       </set>
       <set comment="band 9">
        <r>  0.0000  0.0447  0.0416  0.0017  0.0000  0.0000  0.0000  0.0000  0.0000 </r>
        <r>  0.0000  0.0442  0.0951  0.2714  0.0000  0.0000  0.0000  0.0000  0.0000 </r>
        <r>  0.0000  0.0441  0.0951  0.2716  0.0000  0.0000  0.0000  0.0000  0.0000 </r>
        <r>  0.0000  0.0448  0.0417  0.0017  0.0000  0.0000  0.0000  0.0000  0.0000 </r>
       </set>
       <set comment="band 10">
        <r>  0.0000  0.1064  0.0069  0.1359  0.0000  0.0000  0.0000  0.0000  0.0000 </r>
        <r>  0.0000  0.1050  0.0064  0.1382  0.0000  0.0000  0.0000  0.0000  0.0000 </r>
        <r>  0.0000  0.1053  0.0064  0.1380  0.0000  0.0000  0.0000  0.0000  0.0000 </r>
        <r>  0.0000  0.1061  0.0069  0.1364  0.0000  0.0000  0.0000  0.0000  0.0000 </r>
       </set>
       <set comment="band 11">
        <r>  0.0000  0.0616  0.0786  0.2721  0.0000  0.0000  0.0000  0.0000  0.0000 </r>
        <r>  0.0000  0.0609  0.0241  0.0018  0.0000  0.0000  0.0000  0.0000  0.0000 </r>
        <r>  0.0000  0.0607  0.0241  0.0018  0.0000  0.0000  0.0000  0.0000  0.0000 </r>
        <r>  0.0000  0.0618  0.0785  0.2716  0.0000  0.0000  0.0000  0.0000  0.0000 </r>
       </set>
       <set comment="band 12">
        <r>  0.0000  0.0000  0.1135  0.1377  0.0000  0.0000  0.0000  0.0000  0.0000 </r>
        <r>  0.0000  0.0000  0.1128  0.1351  0.0000  0.0000  0.0000  0.0000  0.0000 </r>
        <r>  0.0000  0.0000  0.1128  0.1351  0.0000  0.0000  0.0000  0.0000  0.0000 </r>
        <r>  0.0000  0.0000  0.1135  0.1377  0.0000  0.0000  0.0000  0.0000  0.0000 </r>
       </set>
       <set comment="band 13">
        <r>  0.0461  0.0000  0.0113  0.0010  0.0000  0.0000  0.0095  0.1103  0.0090 </r>
        <r>  0.0461  0.0000  0.0113  0.0010  0.0000  0.0000  0.0095  0.1103  0.0090 </r>
        <r>  0.0461  0.0000  0.0113  0.0010  0.0000  0.0000  0.0095  0.1103  0.0090 </r>
        <r>  0.0461  0.0000  0.0113  0.0010  0.0000  0.0000  0.0095  0.1103  0.0090 </r>
       </set>
       <set comment="band 14">
        <r>  0.0000  0.0293  0.0000  0.0000  0.2137  0.0063  0.0000  0.0000  0.0000 </r>
        <r>  0.0814  0.0000  0.0004  0.0004  0.0000  0.0000  0.0367  0.0028  0.0072 </r>
        <r>  0.0000  0.0293  0.0000  0.0000  0.2138  0.0063  0.0000  0.0000  0.0000 </r>
        <r>  0.0815  0.0000  0.0004  0.0004  0.0000  0.0000  0.0366  0.0028  0.0072 </r>
       </set>
       <set comment="band 15">
        <r>  0.0815  0.0000  0.0004  0.0004  0.0000  0.0000  0.0366  0.0028  0.0072 </r>
        <r>  0.0000  0.0293  0.0000  0.0000  0.2138  0.0063  0.0000  0.0000  0.0000 </r>
        <r>  0.0814  0.0000  0.0004  0.0004  0.0000  0.0000  0.0367  0.0028  0.0072 </r>
        <r>  0.0000  0.0293  0.0000  0.0000  0.2137  0.0063  0.0000  0.0000  0.0000 </r>
       </set>
       <set comment="band 16">
        <r>  0.0297  0.0000  0.0087  0.0000  0.0000  0.0000  0.0130  0.1334  0.0146 </r>
        <r>  0.0298  0.0000  0.0087  0.0000  0.0000  0.0000  0.0130  0.1335  0.0146 </r>
        <r>  0.0298  0.0000  0.0087  0.0000  0.0000  0.0000  0.0130  0.1335  0.0146 </r>
        <r>  0.0297  0.0000  0.0087  0.0000  0.0000  0.0000  0.0130  0.1334  0.0146 </r>
       </set>
       <set comment="band 17">
        <r>  0.0000  0.0009  0.0000  0.0000  0.1058  0.1274  0.0000  0.0000  0.0000 </r>
        <r>  0.0000  0.0009  0.0000  0.0000  0.1058  0.1275  0.0000  0.0000  0.0000 </r>
        <r>  0.0000  0.0009  0.0000  0.0000  0.1058  0.1275  0.0000  0.0000  0.0000 </r>
        <r>  0.0000  0.0009  0.0000  0.0000  0.1058  0.1274  0.0000  0.0000  0.0000 </r>
       </set>
       <set comment="band 18">
        <r>  0.0000  0.0019  0.0000  0.0000  0.1050  0.1267  0.0000  0.0000  0.0000 </r>
        <r>  0.0000  0.0019  0.0000  0.0000  0.1050  0.1269  0.0000  0.0000  0.0000 </r>
        <r>  0.0000  0.0019  0.0000  0.0000  0.1050  0.1269  0.0000  0.0000  0.0000 </r>
        <r>  0.0000  0.0019  0.0000  0.0000  0.1050  0.1267  0.0000  0.0000  0.0000 </r>
       </set>
       <set comment="band 19">
        <r>  0.0006  0.0000  0.0042  0.0001  0.0000  0.0000  0.0027  0.1916  0.0000 </r>
        <r>  0.0000  0.0008  0.0000  0.0000  0.0043  0.2618  0.0000  0.0000  0.0000 </r>
        <r>  0.0006  0.0000  0.0042  0.0001  0.0000  0.0000  0.0027  0.1916  0.0000 </r>
        <r>  0.0000  0.0008  0.0000  0.0000  0.0043  0.2621  0.0000  0.0000  0.0000 </r>
       </set>
       <set comment="band 20">
        <r>  0.0000  0.0008  0.0000  0.0000  0.0043  0.2621  0.0000  0.0000  0.0000 </r>
        <r>  0.0006  0.0000  0.0042  0.0001  0.0000  0.0000  0.0027  0.1916  0.0000 </r>
        <r>  0.0000  0.0008  0.0000  0.0000  0.0043  0.2618  0.0000  0.0000  0.0000 </r>
        <r>  0.0006  0.0000  0.0042  0.0001  0.0000  0.0000  0.0027  0.1916  0.0000 </r>
       </set>
       <set comment="band 21">
        <r>  0.0280  0.0000  0.0001  0.0340  0.0001  0.0000  0.0024  0.0411  0.0674 </r>
        <r>  0.0000  0.0531  0.0000  0.0000  0.1380  0.0202  0.0000  0.0000  0.0001 </r>
        <r>  0.0280  0.0000  0.0001  0.0340  0.0001  0.0000  0.0024  0.0410  0.0675 </r>
        <r>  0.0000  0.0531  0.0000  0.0000  0.1380  0.0202  0.0000  0.0000  0.0001 </r>
       </set>
       <set comment="band 22">
        <r>  0.0000  0.0531  0.0000  0.0000  0.1380  0.0202  0.0000  0.0000  0.0001 </r>
        <r>  0.0280  0.0000  0.0001  0.0340  0.0001  0.0000  0.0024  0.0410  0.0675 </r>
        <r>  0.0000  0.0531  0.0000  0.0000  0.1380  0.0202  0.0000  0.0000  0.0001 </r>
        <r>  0.0279  0.0000  0.0001  0.0340  0.0001  0.0000  0.0024  0.0411  0.0674 </r>
       </set>
       <set comment="band 23">
        <r>  0.0197  0.0000  0.0332  0.0243  0.0000  0.0000  0.0120  0.0822  0.0098 </r>
        <r>  0.0197  0.0000  0.0332  0.0244  0.0000  0.0000  0.0120  0.0823  0.0098 </r>
        <r>  0.0197  0.0000  0.0332  0.0244  0.0000  0.0000  0.0120  0.0823  0.0098 </r>
        <r>  0.0197  0.0000  0.0332  0.0243  0.0000  0.0000  0.0120  0.0822  0.0098 </r>
       </set>
       <set comment="band 24">
        <r>  0.0100  0.0000  0.0355  0.0245  0.0000  0.0000  0.0508  0.0337  0.0237 </r>
        <r>  0.0100  0.0000  0.0355  0.0245  0.0000  0.0000  0.0509  0.0337  0.0237 </r>
        <r>  0.0100  0.0000  0.0355  0.0245  0.0000  0.0000  0.0509  0.0337  0.0237 </r>
        <r>  0.0100  0.0000  0.0355  0.0245  0.0000  0.0000  0.0508  0.0337  0.0237 </r>
       </set>
       <set comment="band 25">
        <r>  0.0000  0.0012  0.0000  0.0000  0.1354  0.1091  0.0000  0.0000  0.0000 </r>
        <r>  0.0000  0.0012  0.0000  0.0000  0.1355  0.1092  0.0000  0.0000  0.0000 </r>
        <r>  0.0000  0.0012  0.0000  0.0000  0.1355  0.1092  0.0000  0.0000  0.0000 </r>
        <r>  0.0000  0.0012  0.0000  0.0000  0.1354  0.1090  0.0000  0.0000  0.0000 </r>
       </set>
       <set comment="band 26">
        <r>  0.0035  0.0000  0.0025  0.0037  0.0000  0.0000  0.0001  0.2472  0.0157 </r>
        <r>  0.0000  0.0069  0.0000  0.0000  0.0209  0.1788  0.0000  0.0000  0.0000 </r>
        <r>  0.0035  0.0000  0.0025  0.0037  0.0000  0.0000  0.0001  0.2472  0.0157 </r>
        <r>  0.0000  0.0069  0.0000  0.0000  0.0210  0.1789  0.0000  0.0000  0.0000 </r>
       </set>
       <set comment="band 27">
        <r>  0.0000  0.0069  0.0000  0.0000  0.0210  0.1789  0.0000  0.0000  0.0000 </r>
        <r>  0.0035  0.0000  0.0025  0.0037  0.0000  0.0000  0.0001  0.2472  0.0157 </r>
        <r>  0.0000  0.0069  0.0000  0.0000  0.0209  0.1788  0.0000  0.0000  0.0000 </r>
        <r>  0.0035  0.0000  0.0025  0.0037  0.0000  0.0000  0.0001  0.2472  0.0157 </r>
       </set>
       <set comment="band 28">
        <r>  0.0000  0.0007  0.0000  0.0000  0.1367  0.1096  0.0000  0.0000  0.0000 </r>
        <r>  0.0000  0.0007  0.0000  0.0000  0.1367  0.1095  0.0000  0.0000  0.0000 </r>
        <r>  0.0000  0.0007  0.0000  0.0000  0.1367  0.1095  0.0000  0.0000  0.0000 </r>
        <r>  0.0000  0.0007  0.0000  0.0000  0.1367  0.1096  0.0000  0.0000  0.0000 </r>
       </set>
       <set comment="band 29">
        <r>  0.0000  0.0001  0.0000  0.0001  0.0283  0.0006  0.1962  0.0001  0.0287 </r>
        <r>  0.0000  0.0001  0.0000  0.0001  0.0407  0.0009  0.1338  0.0000  0.0238 </r>
        <r>  0.0000  0.0001  0.0000  0.0001  0.0283  0.0006  0.1929  0.0000  0.0338 </r>
        <r>  0.0000  0.0001  0.0000  0.0001  0.0407  0.0009  0.1367  0.0001  0.0196 </r>
       </set>
       <set comment="band 30">
        <r>  0.0000  0.0001  0.0000  0.0001  0.0407  0.0009  0.1351  0.0000  0.0218 </r>
        <r>  0.0000  0.0001  0.0000  0.0001  0.0283  0.0006  0.1946  0.0000  0.0315 </r>
        <r>  0.0000  0.0001  0.0000  0.0001  0.0407  0.0009  0.1355  0.0000  0.0216 </r>
        <r>  0.0000  0.0001  0.0000  0.0001  0.0283  0.0006  0.1946  0.0000  0.0308 </r>
       </set>
       <set comment="band 31">
        <r>  0.0001  0.0000  0.0002  0.0001  0.0000  0.0000  0.0106  0.0488  0.1699 </r>
        <r>  0.0001  0.0000  0.0002  0.0001  0.0000  0.0000  0.0138  0.0488  0.1653 </r>
        <r>  0.0001  0.0000  0.0002  0.0001  0.0000  0.0000  0.0138  0.0488  0.1653 </r>
        <r>  0.0001  0.0000  0.0002  0.0001  0.0000  0.0000  0.0106  0.0488  0.1699 </r>
       </set>
       <set comment="band 32">
        <r>  0.0000  0.0000  0.0000  0.0004  0.0000  0.0000  0.0053  0.0303  0.1943 </r>
        <r>  0.0000  0.0000  0.0000  0.0004  0.0000  0.0000  0.0054  0.0303  0.1944 </r>
        <r>  0.0000  0.0000  0.0000  0.0004  0.0000  0.0000  0.0054  0.0303  0.1944 </r>
        <r>  0.0000  0.0000  0.0000  0.0004  0.0000  0.0000  0.0053  0.0303  0.1943 </r>
       </set>
       <set comment="band 33">
        <r>  0.0072  0.0000  0.0056  0.0027  0.0000  0.0000  0.2173  0.0003  0.0057 </r>
        <r>  0.0072  0.0000  0.0056  0.0027  0.0000  0.0000  0.2171  0.0003  0.0057 </r>
        <r>  0.0072  0.0000  0.0056  0.0027  0.0000  0.0000  0.2171  0.0003  0.0057 </r>
        <r>  0.0072  0.0000  0.0056  0.0027  0.0000  0.0000  0.2173  0.0003  0.0058 </r>
       </set>
       <set comment="band 34">
        <r>  0.0135  0.0119  0.0001  0.0036  0.0016  0.0003  0.0317  0.0004  0.1576 </r>
        <r>  0.0153  0.0105  0.0001  0.0041  0.0014  0.0003  0.0361  0.0004  0.1788 </r>
        <r>  0.0135  0.0119  0.0001  0.0036  0.0016  0.0003  0.0318  0.0004  0.1573 </r>
        <r>  0.0153  0.0105  0.0001  0.0041  0.0014  0.0003  0.0360  0.0004  0.1792 </r>
       </set>
      </set>
     </set>
    </set>
   </array>
  </projected>
 </calculation>
 <structure name="finalpos" >
  <crystal>
   <varray name="basis" >
    <v>       0.00000000       2.84005200       2.84005200 </v>
    <v>       0.00000000       2.84005200      -2.84005200 </v>
    <v>      -2.84005200       0.00000000      -2.84005200 </v>
   </varray>
   <i name="volume">     45.81512451 </i>
   <varray name="rec_basis" >
    <v>      -0.17605311       0.17605311       0.17605311 </v>
    <v>       0.17605311       0.17605311      -0.17605311 </v>
    <v>      -0.35210623       0.00000000       0.00000000 </v>
   </varray>
  </crystal>
  <varray name="positions" >
   <v>       0.50000000       0.50000000       0.00000000 </v>
   <v>       0.75000000       0.75000000       0.50000000 </v>
   <v>       0.00000000       0.00000000       0.00000000 </v>
   <v>       0.25000000       0.25000000       0.50000000 </v>
  </varray>
 </structure>
</modeling>
