=========================================
SLURM_JOB_ID = 63457165
SLURM_JOB_NODELIST = lnode22
SLURM_GPUS = 
SLURM_CPUS_ON_NODE = 16
SLURM_JOB_PARTITION = lenovo
SLURM_TASK_PID = 1799106
CUDA_VISIBLE_DEVICES = 
==========================================
 running on   16 total cores
 distrk:  each k-point on   16 cores,    1 groups
 distr:  one band on    4 cores,    4 groups
 using from now: INCAR     
 vasp.5.4.4.18Apr17-6-g9f103f2a35 (build Apr 28 2018 00:24:27) complex          
  
 POSCAR found type information on POSCAR  Eu S 
 POSCAR found :  2 types and       8 ions
 scaLAPACK will be used

 ----------------------------------------------------------------------------- 
|                                                                             |
|  ADVICE TO THIS USER RUNNING 'VASP/VAMP'   (HEAR YOUR MASTER'S VOICE ...):  |
|                                                                             |
|      You have a (more or less) 'small supercell' and for smaller cells      |
|      it is recommended  to use the reciprocal-space projection scheme!      |
|      The real space optimization is not  efficient for small cells and it   |
|      is also less accurate ...                                              |
|      Therefore set LREAL=.FALSE. in the  INCAR file                         |
|                                                                             |
 ----------------------------------------------------------------------------- 

 LDA part: xc-table for Pade appr. of Perdew
 POSCAR, INCAR and KPOINTS ok, starting setup
 FFT: planning ...
 WAVECAR not read
 entering main loop
       N       E                     dE             d eps       ncg     rms          rms(c)
DAV:   1     0.119882313620E+04    0.11988E+04   -0.32511E+04 36888   0.327E+03
DAV:   2     0.319238485359E+03   -0.87958E+03   -0.80195E+03 44176   0.663E+02
DAV:   3    -0.993231565120E+01   -0.32917E+03   -0.32199E+03 49352   0.341E+02
DAV:   4    -0.592738488097E+02   -0.49342E+02   -0.48353E+02 58128   0.129E+02
DAV:   5    -0.638349457203E+02   -0.45611E+01   -0.43589E+01 64696   0.410E+01    0.275E+01
DAV:   6    -0.766317008838E+02   -0.12797E+02   -0.92836E+01 53080   0.103E+02    0.326E+01
DAV:   7    -0.768571931444E+02   -0.22549E+00   -0.30522E+01 48584   0.647E+01    0.143E+01
DAV:   8    -0.748006711969E+02    0.20565E+01   -0.94993E+00 47944   0.399E+01    0.661E+00
DAV:   9    -0.750768616769E+02   -0.27619E+00   -0.80225E+00 54296   0.196E+01    0.636E+00
DAV:  10    -0.748489389927E+02    0.22792E+00   -0.18963E+00 46824   0.144E+01    0.331E+00
DAV:  11    -0.749337651118E+02   -0.84826E-01   -0.57858E-01 64368   0.476E+00    0.177E+00
DAV:  12    -0.749214924882E+02    0.12273E-01   -0.70545E-02 58040   0.195E+00    0.123E+00
DAV:  13    -0.749127324289E+02    0.87601E-02   -0.21936E-02 58216   0.121E+00    0.758E-01
DAV:  14    -0.749092826754E+02    0.34498E-02   -0.85279E-03 56072   0.754E-01    0.356E-01
DAV:  15    -0.749088959869E+02    0.38669E-03   -0.78291E-03 52544   0.767E-01    0.157E-01
DAV:  16    -0.749090131796E+02   -0.11719E-03   -0.20692E-03 65312   0.254E-01    0.165E-01
DAV:  17    -0.749090222181E+02   -0.90385E-05   -0.28137E-04 64696   0.119E-01    0.153E-01
DAV:  18    -0.749087595229E+02    0.26270E-03   -0.25664E-04 52808   0.164E-01    0.608E-02
DAV:  19    -0.749087081121E+02    0.51411E-04   -0.11150E-04 57200   0.782E-02    0.190E-02
DAV:  20    -0.749087079367E+02    0.17530E-06   -0.31639E-05 65080   0.363E-02    0.161E-02
DAV:  21    -0.749087139272E+02   -0.59904E-05   -0.15643E-05 53272   0.226E-02    0.194E-02
DAV:  22    -0.749087154186E+02   -0.14914E-05   -0.14890E-05 43336   0.233E-02    0.245E-02
DAV:  23    -0.749087236110E+02   -0.81924E-05   -0.14183E-05 40832   0.202E-02    0.310E-02
DAV:  24    -0.749087192841E+02    0.43270E-05   -0.51857E-06 37952   0.251E-02    0.310E-02
DAV:  25    -0.749087034432E+02    0.15841E-04   -0.36631E-06 56456   0.559E-02    0.232E-02
DAV:  26    -0.749086975268E+02    0.59164E-05   -0.41697E-06 59312   0.363E-02    0.178E-02
DAV:  27    -0.749086999550E+02   -0.24281E-05   -0.95562E-06 35912   0.138E-02    0.198E-02
DAV:  28    -0.749087042666E+02   -0.43116E-05   -0.15997E-05 27256   0.151E-02    0.242E-02
DAV:  29    -0.749087104405E+02   -0.61739E-05   -0.14413E-05 27408   0.148E-02    0.287E-02
DAV:  30    -0.749087121311E+02   -0.16906E-05   -0.79153E-06 39368   0.218E-02    0.311E-02
DAV:  31    -0.749087117956E+02    0.33552E-06   -0.46240E-06 56296   0.235E-02    0.315E-02
DAV:  32    -0.749087126951E+02   -0.89956E-06   -0.17463E-06 32336   0.128E-02    0.324E-02
DAV:  33    -0.749087129148E+02   -0.21964E-06   -0.10569E-06 30248   0.853E-03    0.325E-02
DAV:  34    -0.749087111754E+02    0.17393E-05   -0.10634E-06 29168   0.118E-02    0.310E-02
DAV:  35    -0.749087093616E+02    0.18139E-05   -0.33736E-06 33760   0.132E-02    0.298E-02
DAV:  36    -0.749087098058E+02   -0.44417E-06   -0.74730E-06 30432   0.134E-02    0.303E-02
DAV:  37    -0.749087168299E+02   -0.70241E-05   -0.16336E-05 27008   0.165E-02    0.355E-02
DAV:  38    -0.749087234830E+02   -0.66531E-05   -0.14346E-05 27264   0.147E-02    0.384E-02
DAV:  39    -0.749087220976E+02    0.13854E-05   -0.56950E-06 30088   0.214E-02    0.364E-02
DAV:  40    -0.749087249873E+02   -0.28897E-05   -0.30323E-06 26976   0.103E-02    0.377E-02
DAV:  41    -0.749087257465E+02   -0.75927E-06   -0.14713E-06 25768   0.650E-03    0.377E-02
DAV:  42    -0.749087259288E+02   -0.18222E-06   -0.86934E-07 26144   0.766E-03    0.377E-02
DAV:  43    -0.749087255278E+02    0.40097E-06   -0.63504E-07 26520   0.972E-03    0.377E-02
DAV:  44    -0.749087231283E+02    0.23995E-05   -0.86417E-07 33880   0.122E-02    0.366E-02
DAV:  45    -0.749087225446E+02    0.58370E-06   -0.33685E-07 28040   0.585E-03    0.363E-02
DAV:  46    -0.749087217764E+02    0.76821E-06   -0.98869E-08 23072   0.460E-03    0.357E-02
DAV:  47    -0.749087211689E+02    0.60746E-06   -0.57524E-08 23104   0.413E-03    0.351E-02
DAV:  48    -0.749087208159E+02    0.35300E-06   -0.45071E-08 22640   0.284E-03    0.348E-02
DAV:  49    -0.749087201429E+02    0.67303E-06   -0.32962E-08 22784   0.388E-03    0.343E-02
DAV:  50    -0.749087137988E+02    0.63441E-05   -0.71275E-07 40928   0.197E-02    0.298E-02
DAV:  51    -0.749087106174E+02    0.31814E-05   -0.41200E-07 34864   0.112E-02    0.272E-02
DAV:  52    -0.749087105396E+02    0.77816E-07   -0.19172E-07 26336   0.414E-03
   1 F= -.74908711E+02 E0= -.74908711E+02  d E =0.000000E+00  mag=    -0.0000
