       N       E                     dE             d eps       ncg     rms          rms(c)
DAV:   1     0.266683760893E+03    0.26668E+03   -0.24154E+04 21408   0.265E+03
DAV:   2    -0.819699229928E+01   -0.27488E+03   -0.26385E+03 21480   0.486E+02
DAV:   3    -0.162005471430E+02   -0.80036E+01   -0.79851E+01 23016   0.888E+01
DAV:   4    -0.162717432172E+02   -0.71196E-01   -0.71192E-01 24720   0.801E+00
DAV:   5    -0.162730541686E+02   -0.13110E-02   -0.13109E-02 23112   0.103E+00    0.249E+01
DAV:   6    -0.164613391203E+02   -0.18828E+00   -0.74575E+00 21516   0.398E+01    0.687E+00
DAV:   7    -0.165141541543E+02   -0.52815E-01   -0.61576E-01 21588   0.987E+00    0.432E+00
DAV:   8    -0.165242713045E+02   -0.10117E-01   -0.14697E-02 23688   0.147E+00    0.137E+00
DAV:   9    -0.165159143351E+02    0.83570E-02   -0.50769E-03 23016   0.889E-01    0.346E-01
DAV:  10    -0.165155953959E+02    0.31894E-03   -0.21952E-03 21972   0.610E-01    0.441E-02
DAV:  11    -0.165156416842E+02   -0.46288E-04   -0.53942E-05 22776   0.693E-02    0.251E-02
DAV:  12    -0.165156410194E+02    0.66475E-06   -0.48627E-06 24588   0.239E-02    0.106E-02
DAV:  13    -0.165156409959E+02    0.23555E-07   -0.17296E-06 22380   0.135E-02    0.189E-03
DAV:  14    -0.165156412413E+02   -0.24540E-06   -0.92757E-08 17712   0.264E-03    0.609E-04
DAV:  15    -0.165156411885E+02    0.52719E-07   -0.97272E-09 11496   0.113E-03
   1 F= -.16515641E+02 E0= -.16515641E+02  d E =0.000000E+00  mag=     4.4267
