=========================================
SLURM_JOB_ID = 63461604
SLURM_JOB_NODELIST = lnode22
SLURM_GPUS = 
SLURM_CPUS_ON_NODE = 16
SLURM_JOB_PARTITION = lenovo
SLURM_TASK_PID = 1812950
CUDA_VISIBLE_DEVICES = 
==========================================
 running on   16 total cores
 distrk:  each k-point on   16 cores,    1 groups
 distr:  one band on    4 cores,    4 groups
 using from now: INCAR     
 vasp.5.4.4.18Apr17-6-g9f103f2a35 (build Apr 28 2018 00:24:27) complex          
  
 POSCAR found type information on POSCAR  Gd
 POSCAR found :  1 types and       2 ions
 scaLAPACK will be used

 ----------------------------------------------------------------------------- 
|                                                                             |
|  ADVICE TO THIS USER RUNNING 'VASP/VAMP'   (HEAR YOUR MASTER'S VOICE ...):  |
|                                                                             |
|      You have a (more or less) 'small supercell' and for smaller cells      |
|      it is recommended  to use the reciprocal-space projection scheme!      |
|      The real space optimization is not  efficient for small cells and it   |
|      is also less accurate ...                                              |
|      Therefore set LREAL=.FALSE. in the  INCAR file                         |
|                                                                             |
 ----------------------------------------------------------------------------- 

 LDA part: xc-table for Pade appr. of Perdew
 POSCAR, INCAR and KPOINTS ok, starting setup
 FFT: planning ...
 WAVECAR not read
 entering main loop
       N       E                     dE             d eps       ncg     rms          rms(c)
DAV:   1     0.252887860156E+03    0.25289E+03   -0.14864E+04 34192   0.377E+03
DAV:   2     0.158953972311E+02   -0.23699E+03   -0.22259E+03 36424   0.340E+02
DAV:   3    -0.176891093319E+02   -0.33585E+02   -0.33159E+02 33440   0.160E+02
DAV:   4    -0.230460650764E+02   -0.53570E+01   -0.53196E+01 51064   0.424E+01
DAV:   5    -0.234118271468E+02   -0.36576E+00   -0.36147E+00 43208   0.967E+00    0.131E+01
DAV:   6    -0.306001044427E+02   -0.71883E+01   -0.11480E+02 45984   0.744E+01    0.138E+01
DAV:   7    -0.284516244195E+02    0.21485E+01   -0.16558E+01 46672   0.647E+01    0.751E+00
DAV:   8    -0.286070445470E+02   -0.15542E+00   -0.20854E+00 48976   0.121E+01    0.627E+00
DAV:   9    -0.283259477091E+02    0.28110E+00   -0.10926E+00 38336   0.138E+01    0.320E+00
DAV:  10    -0.282864503105E+02    0.39497E-01   -0.25594E-01 55216   0.448E+00    0.216E+00
DAV:  11    -0.282253846117E+02    0.61066E-01   -0.11469E-01 47912   0.360E+00    0.168E+00
DAV:  12    -0.282056537618E+02    0.19731E-01   -0.14194E-01 51248   0.298E+00    0.432E-01
DAV:  13    -0.282041048473E+02    0.15489E-02   -0.39296E-02 55336   0.158E+00    0.146E-01
DAV:  14    -0.282046495954E+02   -0.54475E-03   -0.88037E-03 44200   0.902E-01    0.242E-01
DAV:  15    -0.282044119713E+02    0.23762E-03   -0.10354E-03 44840   0.321E-01    0.627E-02
DAV:  16    -0.282043789301E+02    0.33041E-04   -0.99955E-04 51120   0.214E-01    0.211E-02
DAV:  17    -0.282043868298E+02   -0.78998E-05   -0.39834E-05 49104   0.460E-02    0.882E-03
DAV:  18    -0.282043881035E+02   -0.12737E-05   -0.39778E-06 48312   0.165E-02    0.390E-03
DAV:  19    -0.282043889172E+02   -0.81373E-06   -0.11767E-06 45224   0.829E-03    0.219E-03
DAV:  20    -0.282043887603E+02    0.15699E-06   -0.30010E-07 28264   0.595E-03    0.467E-04
DAV:  21    -0.282043887169E+02    0.43389E-07   -0.27667E-08 26832   0.249E-03
   1 F= -.28204389E+02 E0= -.28204389E+02  d E =0.000000E+00  mag=    -0.0000
