       N       E                     dE             d eps       ncg     rms          rms(c)
DAV:   1     0.128536934988E+04    0.12854E+04   -0.31010E+04 59744   0.354E+03
DAV:   2     0.341965267131E+03   -0.94340E+03   -0.85301E+03 68552   0.711E+02
DAV:   3    -0.776762576793E+01   -0.34973E+03   -0.33920E+03 79128   0.366E+02
DAV:   4    -0.752974536159E+02   -0.67530E+02   -0.65694E+02 95832   0.149E+02
DAV:   5    -0.817051644922E+02   -0.64077E+01   -0.59320E+01 98800   0.498E+01    0.385E+01
RMM:   6    -0.103306540972E+03   -0.21601E+02   -0.24997E+02 71793   0.113E+02    0.690E+01
RMM:   7    -0.837426621307E+02    0.19564E+02   -0.14247E+02 58874   0.127E+02    0.268E+01
RMM:   8    -0.829719324732E+02    0.77073E+00   -0.27781E+01 65486   0.390E+01    0.864E+00
RMM:   9    -0.831746270847E+02   -0.20269E+00   -0.12000E+01 67486   0.231E+01    0.483E+00
RMM:  10    -0.832199404387E+02   -0.45313E-01   -0.13010E+00 77138   0.786E+00    0.454E+00
RMM:  11    -0.832009237398E+02    0.19017E-01   -0.53107E-01 81909   0.404E+00    0.322E+00
RMM:  12    -0.832131253495E+02   -0.12202E-01   -0.23435E-01 84232   0.269E+00    0.234E+00
RMM:  13    -0.832110300713E+02    0.20953E-02   -0.18333E-01 85897   0.220E+00    0.137E+00
RMM:  14    -0.832181507770E+02   -0.71207E-02   -0.84060E-02 89821   0.112E+00    0.746E-01
RMM:  15    -0.832187239179E+02   -0.57314E-03   -0.52737E-02 81300   0.128E+00    0.672E-01
RMM:  16    -0.832224000737E+02   -0.36762E-02   -0.38636E-02 85421   0.671E-01    0.266E-01
RMM:  17    -0.832245959758E+02   -0.21959E-02   -0.22252E-02 81166   0.523E-01    0.271E-01
RMM:  18    -0.832260830297E+02   -0.14871E-02   -0.17536E-02 72612   0.453E-01    0.105E-01
RMM:  19    -0.832270205236E+02   -0.93749E-03   -0.11137E-02 57864   0.388E-01    0.526E-02
RMM:  20    -0.832279776427E+02   -0.95712E-03   -0.10007E-02 57262   0.373E-01    0.338E-02
RMM:  21    -0.832287204098E+02   -0.74277E-03   -0.75833E-03 53196   0.350E-01    0.216E-02
RMM:  22    -0.832293090198E+02   -0.58861E-03   -0.60595E-03 51255   0.343E-01    0.158E-02
RMM:  23    -0.832297695234E+02   -0.46050E-03   -0.47384E-03 49933   0.338E-01    0.175E-02
RMM:  24    -0.832301468761E+02   -0.37735E-03   -0.39114E-03 49820   0.330E-01    0.661E-03
RMM:  25    -0.832304449991E+02   -0.29812E-03   -0.31083E-03 48583   0.305E-01    0.855E-03
RMM:  26    -0.832306924211E+02   -0.24742E-03   -0.26023E-03 48269   0.281E-01    0.128E-02
RMM:  27    -0.832308864363E+02   -0.19402E-03   -0.20493E-03 46219   0.256E-01    0.249E-02
RMM:  28    -0.832310501622E+02   -0.16373E-03   -0.17440E-03 46189   0.243E-01    0.290E-02
RMM:  29    -0.832311784747E+02   -0.12831E-03   -0.13770E-03 44791   0.228E-01    0.316E-02
RMM:  30    -0.832312879167E+02   -0.10944E-03   -0.11824E-03 45006   0.226E-01    0.361E-02
RMM:  31    -0.832313744835E+02   -0.86567E-04   -0.93378E-04 43739   0.217E-01
   1 F= -.83231374E+02 E0= -.83231214E+02  d E =-.832314E+02  mag=    -0.0001
