unknown system                          
   1.00000000000000     
     1.420026    1.420026    1.420026
     1.420026   -1.420026   -1.420026
     0.000000    2.840052   -2.840052
   Fe
     2
Direct
  0.500000  0.500000  0.500000
  0.000000  0.000000  0.000000
 
   36   36   60
 0.23162296593E+07 0.19790271952E+05 0.49371972173E+04 0.80515503531E+03 0.19476122778E+03
 0.10143281332E+03 0.61874685154E+02 0.35174768371E+02 0.18685056104E+02 0.95023105202E+01
 0.47067985872E+01 0.22954695922E+01 0.11094838314E+01 0.53395569081E+00 0.25666755460E+00
 0.12431954073E+00 0.61993732994E-01 0.34833397925E-01 0.27147450835E-01 0.34833397925E-01
 0.61993732994E-01 0.12431954073E+00 0.25666755460E+00 0.53395569081E+00 0.11094838314E+01
 0.22954695922E+01 0.47067985872E+01 0.95023105202E+01 0.18685056104E+02 0.35174768371E+02
 0.61874685154E+02 0.10143281332E+03 0.19476122778E+03 0.80515503531E+03 0.49371972173E+04
 0.19790271952E+05 0.19790271952E+05 0.16550241390E+05 0.56988476838E+04 0.10985028523E+04
 0.24435553457E+03 0.11451836320E+03 0.70543317497E+02 0.41215302505E+02 0.22361463310E+02
 0.11537736021E+02 0.57714977237E+01 0.28336733722E+01 0.13760700422E+01 0.66427508908E+00
 0.31985175358E+00 0.15460887067E+00 0.76057039041E-01 0.40457390752E-01 0.27474156499E-01
 0.29932375417E-01 0.49138999426E-01 0.95958270702E-01 0.19679454313E+00 0.40813911604E+00
 0.84707525656E+00 0.17522719216E+01 0.35974009911E+01 0.72892526458E+01 0.14446021181E+02
 0.27603119390E+02 0.49756687715E+02 0.82941846670E+02 0.13835679257E+03 0.37428040530E+03
 0.19549393099E+04 0.88947646099E+04 0.49371972173E+04 0.56988476838E+04 0.28590643250E+04
 0.80515500222E+03 0.23243645281E+03 0.11668369697E+03 0.73707104058E+02 0.44307103987E+02
 0.24660195998E+02 0.12987549372E+02 0.66019604576E+01 0.32824579162E+01 0.16098927257E+01
 0.78305026483E+00 0.37944539687E+00 0.18389521160E+00 0.90064628872E-01 0.46340292334E-01
 0.28322892725E-01 0.26029055306E-01 0.38194126772E-01 0.71507925300E-01 0.14468425376E+00
 0.29785879985E+00 0.61523995766E+00 0.12669485144E+01 0.25917246258E+01 0.52404303769E+01
 0.10397929759E+02 0.20014824091E+02 0.36724537086E+02 0.62781395715E+02 0.99795287122E+02
 0.17425903526E+03 0.50995212325E+03 0.19549393099E+04 0.80515503531E+03 0.10985028523E+04
 0.80515500222E+03 0.37428037526E+03 0.17425903919E+03 0.10665919292E+03 0.70543335712E+02
 0.43670154683E+02 0.25008858619E+02 0.13514631829E+02 0.70225715236E+01 0.35562326291E+01
 0.17710019894E+01 0.87251895144E+00 0.42713353904E+00 0.20859947647E+00 0.10238876861E+00
 0.51813094273E-01 0.29416176950E-01 0.23135133790E-01 0.29415612635E-01 0.51812574354E-01
 0.10238938362E+00 0.20859948723E+00 0.42713471525E+00 0.87251789547E+00 0.17710020708E+01
 0.35562398305E+01 0.70225681403E+01 0.13514632419E+02 0.25008846830E+02 0.43670154871E+02
 0.70543349867E+02 0.10665918562E+03 0.17425903526E+03 0.37428040530E+03 0.19476122778E+03
 0.24435553457E+03 0.23243645281E+03 0.17425903919E+03 0.12378493199E+03 0.89429270365E+02
 0.61874709523E+02 0.39467850013E+02 0.23316980036E+02 0.12987560015E+02 0.69360914268E+01
 0.35973996872E+01 0.18286332554E+01 0.91682093093E+00 0.45552627923E+00 0.22515669344E+00
 0.11137334564E+00 0.56075255632E-01 0.30415215465E-01 0.21020690612E-01 0.22767870952E-01
 0.36750241999E-01 0.70161783908E-01 0.14078262056E+00 0.28479504317E+00 0.57555583128E+00
 0.11555161193E+01 0.22953948602E+01 0.44892205950E+01 0.85816084506E+01 0.15870859264E+02
 0.27996632096E+02 0.46275606153E+02 0.70543349867E+02 0.99795287122E+02 0.13835679257E+03
 0.10143281332E+03 0.11451836320E+03 0.11668369697E+03 0.10665919292E+03 0.89429270365E+02
 0.69520878397E+02 0.49756718714E+02 0.32742495285E+02 0.20014836145E+02 0.11537711078E+02
 0.63631013470E+01 0.33967692443E+01 0.17709638981E+01 0.90772918520E+00 0.45971232468E+00
 0.23090283216E+00 0.11567473499E+00 0.58410951128E-01 0.30959889805E-01 0.19389893932E-01
 0.17939013790E-01 0.25722690184E-01 0.46882571800E-01 0.91899328808E-01 0.18343561361E+00
 0.36568577710E+00 0.72430858585E+00 0.14195991492E+01 0.27400491085E+01 0.51779814621E+01
 0.95022544013E+01 0.16753661348E+02 0.27996632096E+02 0.43670154871E+02 0.62781395715E+02
 0.82941846670E+02 0.61874685154E+02 0.70543317497E+02 0.73707104058E+02 0.70543335712E+02
 0.61874709523E+02 0.49756718714E+02 0.36724546454E+02 0.25008828060E+02 0.15870862034E+02
 0.95022502150E+01 0.54328990207E+01 0.29976354599E+01 0.16098084976E+01 0.84693028507E+00
 0.43888134202E+00 0.22491250948E+00 0.11451992079E+00 0.58428223852E-01 0.30663258534E-01
 0.18038150485E-01 0.14411639618E-01 0.18039947054E-01 0.30665946227E-01 0.58432950477E-01
 0.11452343604E+00 0.22491859271E+00 0.43888740743E+00 0.84692980122E+00 0.16098185393E+01
 0.29976280415E+01 0.54329271110E+01 0.95022544013E+01 0.15870859264E+02 0.25008846830E+02
 0.36724537086E+02 0.49756687715E+02 0.35174768371E+02 0.41215302505E+02 0.44307103987E+02
 0.43670154683E+02 0.39467850013E+02 0.32742495285E+02 0.25008828060E+02 0.17690546964E+02
 0.11689617210E+02 0.72891938241E+01 0.43334039089E+01 0.24793310850E+01 0.13759690871E+01
 0.74564074387E+00 0.39671969310E+00 0.20811553169E+00 0.10807420893E+00 0.55988616996E-01
 0.29417945183E-01 0.16675549740E-01 0.11842759653E-01 0.12780136114E-01 0.19832882809E-01
 0.36335659460E-01 0.69673159023E-01 0.13460058650E+00 0.25835275479E+00 0.49054573256E+00
 0.91675879225E+00 0.16793048607E+01 0.29976280415E+01 0.51779814621E+01 0.85816084507E+01
 0.13514632419E+02 0.20014824091E+02 0.27603119390E+02 0.18685056104E+02 0.22361463310E+02
 0.24660195998E+02 0.25008858619E+02 0.23316980036E+02 0.20014836145E+02 0.15870862034E+02
 0.11689617210E+02 0.80566697256E+01 0.52403917252E+01 0.32453019880E+01 0.19293886986E+01
 0.11093866334E+01 0.62087072039E+00 0.34006102596E+00 0.18311129179E+00 0.97283683164E-01
 0.51347185733E-01 0.27238426695E-01 0.15156983084E-01 0.99010705222E-02 0.92251507986E-02
 0.12807059180E-01 0.22222967824E-01 0.41513016493E-01 0.78668560108E-01 0.14852623899E+00
 0.27711623087E+00 0.50920559690E+00 0.91675879225E+00 0.16098185393E+01 0.27400491085E+01
 0.44892205950E+01 0.70225681403E+01 0.10397929759E+02 0.14446021181E+02 0.95023105202E+01
 0.11537736021E+02 0.12987549372E+02 0.13514631829E+02 0.12987560015E+02 0.11537711078E+02
 0.95022502150E+01 0.72891938241E+01 0.52403917252E+01 0.35562482113E+01 0.22953469136E+01
 0.14195385374E+01 0.84691488424E+00 0.49047517379E+00 0.27708060069E+00 0.15347449272E+00
 0.83628186091E-01 0.45111851161E-01 0.24288947394E-01 0.13465053331E-01 0.83160341098E-02
 0.68362745574E-02 0.83298269023E-02 0.13488575366E-01 0.24318557580E-01 0.45149977881E-01
 0.83664705397E-01 0.15353269650E+00 0.27711623086E+00 0.49054573256E+00 0.84692980123E+00
 0.14195991492E+01 0.22953948602E+01 0.35562398305E+01 0.52404303769E+01 0.72892526458E+01
 0.47067985872E+01 0.57714977237E+01 0.66019604576E+01 0.70225715236E+01 0.69360914268E+01
 0.63631013470E+01 0.54328990207E+01 0.43334039089E+01 0.32453019880E+01 0.22953469136E+01
 0.15434542192E+01 0.99289547555E+00 0.61495424807E+00 0.36884514151E+00 0.21526400206E+00
 0.12279057322E+00 0.68777012005E-01 0.37976752275E-01 0.20867320310E-01 0.11624711586E-01
 0.69884902732E-02 0.51773675375E-02 0.55468437211E-02 0.81864517080E-02 0.14134550300E-01
 0.25538798271E-01 0.46451656042E-01 0.83664705399E-01 0.14852623899E+00 0.25835275479E+00
 0.43888740743E+00 0.72430858585E+00 0.11555161193E+01 0.17710020708E+01 0.25917246258E+01
 0.35974009911E+01 0.22954695922E+01 0.28336733722E+01 0.32824579162E+01 0.35562326291E+01
 0.35973996872E+01 0.33967692443E+01 0.29976354599E+01 0.24793310850E+01 0.19293886986E+01
 0.14195385374E+01 0.99289547555E+00 0.66398843702E+00 0.42679080733E+00 0.26515198898E+00
 0.15995091880E+00 0.94097746089E-01 0.54216369164E-01 0.30728698390E-01 0.17252827017E-01
 0.97521526875E-02 0.58002378837E-02 0.40372331634E-02 0.38187014949E-02 0.50744002773E-02
 0.82358581873E-02 0.14388479966E-01 0.25538798269E-01 0.45149977884E-01 0.78668560109E-01
 0.13460058650E+00 0.22491859271E+00 0.36568577710E+00 0.57555583128E+00 0.87251789547E+00
 0.12669485144E+01 0.17522719216E+01 0.11094838313E+01 0.13760700422E+01 0.16098927257E+01
 0.17710019894E+01 0.18286332554E+01 0.17709638981E+01 0.16098084976E+01 0.13759690871E+01
 0.11093866334E+01 0.84691488423E+00 0.61495424807E+00 0.42679080732E+00 0.28450458226E+00
 0.18301846169E+00 0.11411702567E+00 0.69275426917E-01 0.41106035842E-01 0.23954542397E-01
 0.13799041657E-01 0.79659470166E-02 0.47697870484E-02 0.32196566617E-02 0.27969630643E-02
 0.33212352823E-02 0.49632570314E-02 0.82358581861E-02 0.14134550299E-01 0.24318557574E-01
 0.41513016490E-01 0.69673159026E-01 0.11452343603E+00 0.18343561361E+00 0.28479504317E+00
 0.42713471525E+00 0.61523995767E+00 0.84707525656E+00 0.53395569081E+00 0.66427508908E+00
 0.78305026483E+00 0.87251895145E+00 0.91682093093E+00 0.90772918520E+00 0.84693028508E+00
 0.74564074387E+00 0.62087072039E+00 0.49047517379E+00 0.36884514151E+00 0.26515198898E+00
 0.18301846170E+00 0.12179019383E+00 0.78473260939E-01 0.49152078775E-01 0.30059183235E-01
 0.18038685208E-01 0.10706286195E-01 0.63780699791E-02 0.39354661995E-02 0.26859607725E-02
 0.22464115514E-02 0.24586654322E-02 0.33212352840E-02 0.50744002759E-02 0.81864517070E-02
 0.13488575362E-01 0.22222967825E-01 0.36335659460E-01 0.58432950477E-01 0.91899328806E-01
 0.14078262056E+00 0.20859948723E+00 0.29785879984E+00 0.40813911604E+00 0.25666755461E+00
 0.31985175358E+00 0.37944539687E+00 0.42713353904E+00 0.45552627922E+00 0.45971232468E+00
 0.43888134202E+00 0.39671969310E+00 0.34006102596E+00 0.27708060069E+00 0.21526400206E+00
 0.15995091880E+00 0.11411702567E+00 0.78473260939E-01 0.52204826280E-01 0.33737889943E-01
 0.21280196974E-01 0.13185117317E-01 0.81125524547E-02 0.50577946296E-02 0.33204543651E-02
 0.24329322177E-02 0.21191245110E-02 0.22464115520E-02 0.27969630604E-02 0.38187014949E-02
 0.55468437196E-02 0.83298268990E-02 0.12807059176E-01 0.19832882810E-01 0.30665946226E-01
 0.46882571798E-01 0.70161783911E-01 0.10238938362E+00 0.14468425376E+00 0.19679454313E+00
 0.12431954072E+00 0.15460887067E+00 0.18389521160E+00 0.20859947647E+00 0.22515669345E+00
 0.23090283216E+00 0.22491250949E+00 0.20811553168E+00 0.18311129179E+00 0.15347449271E+00
 0.12279057322E+00 0.94097746089E-01 0.69275426917E-01 0.49152078772E-01 0.33737889946E-01
 0.22499498309E-01 0.14668185148E-01 0.94361822489E-02 0.60956665647E-02 0.40813664076E-02
 0.29782081601E-02 0.24932031770E-02 0.24329322172E-02 0.26859607695E-02 0.32196566645E-02
 0.40372331634E-02 0.51773675399E-02 0.68362745554E-02 0.92251508004E-02 0.12780136113E-01
 0.18039947053E-01 0.25722690187E-01 0.36750241999E-01 0.51812574354E-01 0.71507925299E-01
 0.95958270704E-01 0.61993732989E-01 0.76057039041E-01 0.90064628870E-01 0.10238876861E+00
 0.11137334564E+00 0.11567473499E+00 0.11451992079E+00 0.10807420893E+00 0.97283683161E-01
 0.83628186093E-01 0.68777012004E-01 0.54216369165E-01 0.41106035844E-01 0.30059183237E-01
 0.21280196974E-01 0.14668185149E-01 0.99347967070E-02 0.67201293915E-02 0.46774623325E-02
 0.35125310845E-02 0.30014126865E-02 0.29782081609E-02 0.33204543641E-02 0.39354661997E-02
 0.47697870505E-02 0.58002378844E-02 0.69884902732E-02 0.83160341103E-02 0.99010705222E-02
 0.11842759654E-01 0.14411639618E-01 0.17939013790E-01 0.22767870952E-01 0.29415612634E-01
 0.38194126769E-01 0.49138999426E-01 0.34833397924E-01 0.40457390751E-01 0.46340292331E-01
 0.51813094271E-01 0.56075255630E-01 0.58410951129E-01 0.58428223852E-01 0.55988616997E-01
 0.51347185732E-01 0.45111851161E-01 0.37976752278E-01 0.30728698389E-01 0.23954542400E-01
 0.18038685208E-01 0.13185117318E-01 0.94361822500E-02 0.67201293908E-02 0.49030549296E-02
 0.38410340112E-02 0.34096742900E-02 0.35125310890E-02 0.40813664093E-02 0.50577946305E-02
 0.63780699796E-02 0.79659470200E-02 0.97521526872E-02 0.11624711589E-01 0.13465053330E-01
 0.15156983082E-01 0.16675549742E-01 0.18038150484E-01 0.19389893932E-01 0.21020690611E-01
 0.23135133789E-01 0.26029055305E-01 0.29932375417E-01 0.27147450851E-01 0.27474156495E-01
 0.28322892722E-01 0.29416176951E-01 0.30415215464E-01 0.30959889804E-01 0.30663258544E-01
 0.29417945187E-01 0.27238426692E-01 0.24288947399E-01 0.20867320319E-01 0.17252827017E-01
 0.13799041652E-01 0.10706286193E-01 0.81125524641E-02 0.60956665528E-02 0.46774623335E-02
 0.38410339989E-02 0.35660679277E-02 0.38410339985E-02 0.46774623336E-02 0.60956665528E-02
 0.81125524641E-02 0.10706286193E-01 0.13799041652E-01 0.17252827017E-01 0.20867320319E-01
 0.24288947399E-01 0.27238426692E-01 0.29417945187E-01 0.30663258544E-01 0.30959889804E-01
 0.30415215464E-01 0.29416176951E-01 0.28322892722E-01 0.27474156495E-01 0.34833397924E-01
 0.29932375417E-01 0.26029055305E-01 0.23135133789E-01 0.21020690611E-01 0.19389893932E-01
 0.18038150484E-01 0.16675549742E-01 0.15156983082E-01 0.13465053330E-01 0.11624711589E-01
 0.97521526872E-02 0.79659470200E-02 0.63780699795E-02 0.50577946305E-02 0.40813664094E-02
 0.35125310888E-02 0.34096742902E-02 0.38410340110E-02 0.49030549296E-02 0.67201293911E-02
 0.94361822500E-02 0.13185117318E-01 0.18038685208E-01 0.23954542400E-01 0.30728698389E-01
 0.37976752278E-01 0.45111851161E-01 0.51347185732E-01 0.55988616997E-01 0.58428223852E-01
 0.58410951129E-01 0.56075255630E-01 0.51813094271E-01 0.46340292331E-01 0.40457390751E-01
 0.61993732989E-01 0.49138999426E-01 0.38194126769E-01 0.29415612634E-01 0.22767870952E-01
 0.17939013790E-01 0.14411639618E-01 0.11842759654E-01 0.99010705223E-02 0.83160341103E-02
 0.69884902731E-02 0.58002378844E-02 0.47697870505E-02 0.39354661996E-02 0.33204543641E-02
 0.29782081609E-02 0.30014126866E-02 0.35125310844E-02 0.46774623323E-02 0.67201293917E-02
 0.99347967071E-02 0.14668185149E-01 0.21280196974E-01 0.30059183237E-01 0.41106035844E-01
 0.54216369165E-01 0.68777012004E-01 0.83628186093E-01 0.97283683160E-01 0.10807420893E+00
 0.11451992079E+00 0.11567473499E+00 0.11137334564E+00 0.10238876861E+00 0.90064628870E-01
 0.76057039041E-01 0.12431954072E+00 0.95958270704E-01 0.71507925299E-01 0.51812574354E-01
 0.36750241999E-01 0.25722690187E-01 0.18039947053E-01 0.12780136113E-01 0.92251508005E-02
 0.68362745554E-02 0.51773675398E-02 0.40372331634E-02 0.32196566645E-02 0.26859607694E-02
 0.24329322172E-02 0.24932031770E-02 0.29782081601E-02 0.40813664078E-02 0.60956665647E-02
 0.94361822487E-02 0.14668185148E-01 0.22499498309E-01 0.33737889946E-01 0.49152078772E-01
 0.69275426917E-01 0.94097746089E-01 0.12279057322E+00 0.15347449271E+00 0.18311129179E+00
 0.20811553168E+00 0.22491250949E+00 0.23090283216E+00 0.22515669345E+00 0.20859947647E+00
 0.18389521160E+00 0.15460887067E+00 0.25666755461E+00 0.19679454313E+00 0.14468425376E+00
 0.10238938362E+00 0.70161783911E-01 0.46882571799E-01 0.30665946226E-01 0.19832882810E-01
 0.12807059176E-01 0.83298268990E-02 0.55468437195E-02 0.38187014949E-02 0.27969630604E-02
 0.22464115520E-02 0.21191245110E-02 0.24329322177E-02 0.33204543652E-02 0.50577946297E-02
 0.81125524547E-02 0.13185117317E-01 0.21280196974E-01 0.33737889943E-01 0.52204826280E-01
 0.78473260939E-01 0.11411702567E+00 0.15995091880E+00 0.21526400206E+00 0.27708060069E+00
 0.34006102596E+00 0.39671969310E+00 0.43888134202E+00 0.45971232468E+00 0.45552627922E+00
 0.42713353904E+00 0.37944539687E+00 0.31985175358E+00 0.53395569081E+00 0.40813911604E+00
 0.29785879984E+00 0.20859948723E+00 0.14078262056E+00 0.91899328806E-01 0.58432950477E-01
 0.36335659460E-01 0.22222967825E-01 0.13488575362E-01 0.81864517070E-02 0.50744002759E-02
 0.33212352840E-02 0.24586654322E-02 0.22464115514E-02 0.26859607725E-02 0.39354661995E-02
 0.63780699792E-02 0.10706286195E-01 0.18038685208E-01 0.30059183235E-01 0.49152078775E-01
 0.78473260939E-01 0.12179019383E+00 0.18301846170E+00 0.26515198898E+00 0.36884514151E+00
 0.49047517379E+00 0.62087072039E+00 0.74564074387E+00 0.84693028508E+00 0.90772918520E+00
 0.91682093093E+00 0.87251895145E+00 0.78305026483E+00 0.66427508908E+00 0.11094838313E+01
 0.84707525656E+00 0.61523995767E+00 0.42713471525E+00 0.28479504317E+00 0.18343561361E+00
 0.11452343603E+00 0.69673159026E-01 0.41513016490E-01 0.24318557574E-01 0.14134550299E-01
 0.82358581861E-02 0.49632570313E-02 0.33212352822E-02 0.27969630643E-02 0.32196566617E-02
 0.47697870484E-02 0.79659470166E-02 0.13799041657E-01 0.23954542397E-01 0.41106035842E-01
 0.69275426917E-01 0.11411702567E+00 0.18301846169E+00 0.28450458226E+00 0.42679080732E+00
 0.61495424807E+00 0.84691488423E+00 0.11093866334E+01 0.13759690871E+01 0.16098084976E+01
 0.17709638981E+01 0.18286332554E+01 0.17710019894E+01 0.16098927257E+01 0.13760700422E+01
 0.22954695922E+01 0.17522719216E+01 0.12669485144E+01 0.87251789547E+00 0.57555583128E+00
 0.36568577710E+00 0.22491859271E+00 0.13460058650E+00 0.78668560109E-01 0.45149977884E-01
 0.25538798269E-01 0.14388479966E-01 0.82358581873E-02 0.50744002772E-02 0.38187014949E-02
 0.40372331634E-02 0.58002378836E-02 0.97521526873E-02 0.17252827017E-01 0.30728698390E-01
 0.54216369164E-01 0.94097746089E-01 0.15995091880E+00 0.26515198898E+00 0.42679080733E+00
 0.66398843702E+00 0.99289547555E+00 0.14195385374E+01 0.19293886986E+01 0.24793310850E+01
 0.29976354599E+01 0.33967692443E+01 0.35973996872E+01 0.35562326291E+01 0.32824579162E+01
 0.28336733722E+01 0.47067985872E+01 0.35974009911E+01 0.25917246258E+01 0.17710020708E+01
 0.11555161193E+01 0.72430858585E+00 0.43888740743E+00 0.25835275479E+00 0.14852623899E+00
 0.83664705399E-01 0.46451656042E-01 0.25538798271E-01 0.14134550300E-01 0.81864517079E-02
 0.55468437211E-02 0.51773675374E-02 0.69884902732E-02 0.11624711586E-01 0.20867320310E-01
 0.37976752276E-01 0.68777012005E-01 0.12279057322E+00 0.21526400206E+00 0.36884514151E+00
 0.61495424807E+00 0.99289547555E+00 0.15434542192E+01 0.22953469136E+01 0.32453019880E+01
 0.43334039089E+01 0.54328990207E+01 0.63631013470E+01 0.69360914268E+01 0.70225715236E+01
 0.66019604576E+01 0.57714977237E+01 0.95023105202E+01 0.72892526458E+01 0.52404303769E+01
 0.35562398305E+01 0.22953948602E+01 0.14195991492E+01 0.84692980123E+00 0.49054573256E+00
 0.27711623086E+00 0.15353269650E+00 0.83664705397E-01 0.45149977881E-01 0.24318557580E-01
 0.13488575366E-01 0.83298269023E-02 0.68362745574E-02 0.83160341097E-02 0.13465053331E-01
 0.24288947394E-01 0.45111851162E-01 0.83628186091E-01 0.15347449272E+00 0.27708060069E+00
 0.49047517379E+00 0.84691488424E+00 0.14195385374E+01 0.22953469136E+01 0.35562482113E+01
 0.52403917252E+01 0.72891938241E+01 0.95022502150E+01 0.11537711078E+02 0.12987560015E+02
 0.13514631829E+02 0.12987549372E+02 0.11537736021E+02 0.18685056104E+02 0.14446021181E+02
 0.10397929759E+02 0.70225681403E+01 0.44892205950E+01 0.27400491085E+01 0.16098185393E+01
 0.91675879225E+00 0.50920559690E+00 0.27711623087E+00 0.14852623899E+00 0.78668560108E-01
 0.41513016493E-01 0.22222967824E-01 0.12807059180E-01 0.92251507985E-02 0.99010705221E-02
 0.15156983084E-01 0.27238426695E-01 0.51347185734E-01 0.97283683164E-01 0.18311129179E+00
 0.34006102596E+00 0.62087072039E+00 0.11093866334E+01 0.19293886986E+01 0.32453019880E+01
 0.52403917252E+01 0.80566697256E+01 0.11689617210E+02 0.15870862034E+02 0.20014836145E+02
 0.23316980036E+02 0.25008858619E+02 0.24660195998E+02 0.22361463310E+02 0.35174768371E+02
 0.27603119390E+02 0.20014824091E+02 0.13514632419E+02 0.85816084507E+01 0.51779814621E+01
 0.29976280415E+01 0.16793048607E+01 0.91675879225E+00 0.49054573256E+00 0.25835275479E+00
 0.13460058650E+00 0.69673159023E-01 0.36335659460E-01 0.19832882809E-01 0.12780136114E-01
 0.11842759653E-01 0.16675549740E-01 0.29417945183E-01 0.55988616996E-01 0.10807420893E+00
 0.20811553169E+00 0.39671969310E+00 0.74564074387E+00 0.13759690871E+01 0.24793310850E+01
 0.43334039089E+01 0.72891938241E+01 0.11689617210E+02 0.17690546964E+02 0.25008828060E+02
 0.32742495285E+02 0.39467850013E+02 0.43670154683E+02 0.44307103987E+02 0.41215302505E+02
 0.61874685154E+02 0.49756687715E+02 0.36724537086E+02 0.25008846830E+02 0.15870859264E+02
 0.95022544013E+01 0.54329271110E+01 0.29976280415E+01 0.16098185393E+01 0.84692980122E+00
 0.43888740743E+00 0.22491859271E+00 0.11452343604E+00 0.58432950477E-01 0.30665946227E-01
 0.18039947054E-01 0.14411639618E-01 0.18038150485E-01 0.30663258534E-01 0.58428223853E-01
 0.11451992079E+00 0.22491250948E+00 0.43888134202E+00 0.84693028507E+00 0.16098084976E+01
 0.29976354599E+01 0.54328990207E+01 0.95022502150E+01 0.15870862034E+02 0.25008828060E+02
 0.36724546454E+02 0.49756718714E+02 0.61874709523E+02 0.70543335712E+02 0.73707104058E+02
 0.70543317497E+02 0.10143281332E+03 0.82941846670E+02 0.62781395715E+02 0.43670154871E+02
 0.27996632096E+02 0.16753661348E+02 0.95022544013E+01 0.51779814621E+01 0.27400491085E+01
 0.14195991492E+01 0.72430858585E+00 0.36568577710E+00 0.18343561361E+00 0.91899328808E-01
 0.46882571800E-01 0.25722690184E-01 0.17939013790E-01 0.19389893932E-01 0.30959889806E-01
 0.58410951128E-01 0.11567473499E+00 0.23090283216E+00 0.45971232468E+00 0.90772918520E+00
 0.17709638981E+01 0.33967692443E+01 0.63631013470E+01 0.11537711078E+02 0.20014836145E+02
 0.32742495285E+02 0.49756718714E+02 0.69520878397E+02 0.89429270365E+02 0.10665919292E+03
 0.11668369697E+03 0.11451836320E+03 0.19476122778E+03 0.13835679257E+03 0.99795287122E+02
 0.70543349867E+02 0.46275606153E+02 0.27996632096E+02 0.15870859264E+02 0.85816084506E+01
 0.44892205950E+01 0.22953948602E+01 0.11555161193E+01 0.57555583128E+00 0.28479504317E+00
 0.14078262056E+00 0.70161783908E-01 0.36750241999E-01 0.22767870952E-01 0.21020690612E-01
 0.30415215465E-01 0.56075255632E-01 0.11137334564E+00 0.22515669344E+00 0.45552627923E+00
 0.91682093093E+00 0.18286332554E+01 0.35973996872E+01 0.69360914268E+01 0.12987560015E+02
 0.23316980036E+02 0.39467850013E+02 0.61874709523E+02 0.89429270365E+02 0.12378493199E+03
 0.17425903919E+03 0.23243645281E+03 0.24435553457E+03 0.80515503531E+03 0.37428040530E+03
 0.17425903526E+03 0.10665918562E+03 0.70543349867E+02 0.43670154871E+02 0.25008846830E+02
 0.13514632419E+02 0.70225681403E+01 0.35562398305E+01 0.17710020708E+01 0.87251789547E+00
 0.42713471525E+00 0.20859948723E+00 0.10238938362E+00 0.51812574354E-01 0.29415612635E-01
 0.23135133790E-01 0.29416176950E-01 0.51813094272E-01 0.10238876861E+00 0.20859947647E+00
 0.42713353904E+00 0.87251895144E+00 0.17710019894E+01 0.35562326291E+01 0.70225715236E+01
 0.13514631829E+02 0.25008858619E+02 0.43670154683E+02 0.70543335712E+02 0.10665919292E+03
 0.17425903919E+03 0.37428037526E+03 0.80515500222E+03 0.10985028523E+04 0.49371972173E+04
 0.19549393099E+04 0.50995212325E+03 0.17425903526E+03 0.99795287122E+02 0.62781395715E+02
 0.36724537086E+02 0.20014824091E+02 0.10397929759E+02 0.52404303769E+01 0.25917246258E+01
 0.12669485144E+01 0.61523995766E+00 0.29785879985E+00 0.14468425376E+00 0.71507925300E-01
 0.38194126772E-01 0.26029055306E-01 0.28322892725E-01 0.46340292335E-01 0.90064628872E-01
 0.18389521160E+00 0.37944539687E+00 0.78305026483E+00 0.16098927257E+01 0.32824579162E+01
 0.66019604576E+01 0.12987549372E+02 0.24660195998E+02 0.44307103987E+02 0.73707104058E+02
 0.11668369697E+03 0.23243645281E+03 0.80515500222E+03 0.28590643250E+04 0.56988476838E+04
 0.19790271952E+05 0.88947646099E+04 0.19549393099E+04 0.37428040530E+03 0.13835679257E+03
 0.82941846670E+02 0.49756687715E+02 0.27603119390E+02 0.14446021181E+02 0.72892526458E+01
 0.35974009911E+01 0.17522719216E+01 0.84707525656E+00 0.40813911604E+00 0.19679454313E+00
 0.95958270702E-01 0.49138999426E-01 0.29932375418E-01 0.27474156499E-01 0.40457390752E-01
 0.76057039041E-01 0.15460887067E+00 0.31985175358E+00 0.66427508907E+00 0.13760700422E+01
 0.28336733722E+01 0.57714977237E+01 0.11537736021E+02 0.22361463310E+02 0.41215302505E+02
 0.70543317497E+02 0.11451836320E+03 0.24435553457E+03 0.10985028523E+04 0.56988476838E+04
 0.16550241390E+05 0.20290315605E+05 0.12307915699E+05 0.33165935511E+04 0.61307690942E+03
 0.17498240625E+03 0.96831469364E+02 0.59336801535E+02 0.33751362203E+02 0.17963054314E+02
 0.91589007865E+01 0.45489828484E+01 0.22242452143E+01 0.10775680558E+01 0.51973885670E+00
 0.25030114411E+00 0.12143644743E+00 0.60662874892E-01 0.34130828546E-01 0.26628402268E-01
 0.34130828546E-01 0.60662874892E-01 0.12143644743E+00 0.25030114411E+00 0.51973885670E+00
 0.10775680558E+01 0.22242452143E+01 0.45489828484E+01 0.91589007865E+01 0.17963054314E+02
 0.33751362203E+02 0.59336801535E+02 0.96831469364E+02 0.17498240625E+03 0.61307690942E+03
 0.33165935511E+04 0.12307915699E+05 0.12307915699E+05 0.10551614441E+05 0.37979565021E+04
 0.81480259507E+03 0.21295044262E+03 0.10874433785E+03 0.67640727926E+02 0.39536254072E+02
 0.21483968842E+02 0.11112308015E+02 0.55736840779E+01 0.27437721207E+01 0.13356154879E+01
 0.64614027219E+00 0.31173253494E+00 0.15095469276E+00 0.74383146489E-01 0.39626531438E-01
 0.26943159740E-01 0.29341931049E-01 0.48111257574E-01 0.93789560048E-01 0.19204046377E+00
 0.39754029604E+00 0.82337660436E+00 0.16994481580E+01 0.34802835857E+01 0.70330384588E+01
 0.13901201945E+02 0.26502421043E+02 0.47720226562E+02 0.79472023334E+02 0.12947133934E+03
 0.30878002288E+03 0.13903176923E+04 0.57988356734E+04 0.33165935511E+04 0.37979565021E+04
 0.19839201723E+04 0.61307687465E+03 0.20393045285E+03 0.11067665837E+03 0.70667103506E+02
 0.42498117253E+02 0.23684967443E+02 0.12502784924E+02 0.63724807314E+01 0.31767002195E+01
 0.15618444597E+01 0.76134406885E+00 0.36965390689E+00 0.17947989366E+00 0.88040222392E-01
 0.45376175504E-01 0.27767472243E-01 0.25529829701E-01 0.37412487101E-01 0.69943443765E-01
 0.14128263676E+00 0.29035495102E+00 0.59858627386E+00 0.12300658393E+01 0.25103364283E+01
 0.50627986422E+01 0.10018554148E+02 0.19236761751E+02 0.35235418138E+02 0.60205930366E+02
 0.95313940272E+02 0.15884188331E+03 0.40609776645E+03 0.13903176923E+04 0.61307690942E+03
 0.81480259507E+03 0.61307687465E+03 0.30877999331E+03 0.15884188857E+03 0.10163251818E+03
 0.67640746111E+02 0.41887955118E+02 0.24018787532E+02 0.13008204311E+02 0.67767578774E+01
 0.34406133797E+01 0.17175442601E+01 0.84802815284E+00 0.41598162770E+00 0.20353268265E+00
 0.10005314514E+00 0.50720252781E-01 0.28827825644E-01 0.22699386540E-01 0.28828627041E-01
 0.50720797821E-01 0.10005326802E+00 0.20353247718E+00 0.41598247724E+00 0.84802695913E+00
 0.17175437394E+01 0.34406211826E+01 0.67767548429E+01 0.13008205463E+02 0.24018776988E+02
 0.41887952555E+02 0.67640761803E+02 0.10163251256E+03 0.15884188331E+03 0.30878002288E+03
 0.17498240625E+03 0.21295044262E+03 0.20393045285E+03 0.15884188857E+03 0.11694928275E+03
 0.85616336301E+02 0.59336828284E+02 0.37862544010E+02 0.22398883924E+02 0.12502794182E+02
 0.66936467998E+01 0.34802827541E+01 0.17732307391E+01 0.89102226257E+00 0.44354989569E+00
 0.21964137292E+00 0.10881262127E+00 0.54877145561E-01 0.29805431893E-01 0.20623942527E-01
 0.22329075298E-01 0.35997537732E-01 0.68623469209E-01 0.13747832524E+00 0.27765133664E+00
 0.56009629697E+00 0.11221223289E+01 0.22241718316E+01 0.43395223299E+01 0.82747370910E+01
 0.15266765049E+02 0.26879166103E+02 0.44384169070E+02 0.67640761803E+02 0.95313940272E+02
 0.12947133934E+03 0.96831469364E+02 0.10874433785E+03 0.11067665837E+03 0.10163251818E+03
 0.85616336301E+02 0.66662354784E+02 0.47720260021E+02 0.31422696617E+02 0.19236779840E+02
 0.11112279062E+02 0.61427888090E+01 0.32869216203E+01 0.17175109464E+01 0.88218132698E+00
 0.44761476353E+00 0.22523111732E+00 0.11300483504E+00 0.57152277825E-01 0.30332092416E-01
 0.19023414805E-01 0.17602702357E-01 0.25216515802E-01 0.45892356365E-01 0.89826499923E-01
 0.17902444403E+00 0.35627115683E+00 0.70441138953E+00 0.13777154357E+01 0.26534576079E+01
 0.50027035823E+01 0.91588447000E+01 0.16112792787E+02 0.26879166103E+02 0.41887952555E+02
 0.60205930366E+02 0.79472023334E+02 0.59336801535E+02 0.67640727926E+02 0.70667103506E+02
 0.67640746111E+02 0.59336828284E+02 0.47720260021E+02 0.35235425355E+02 0.24018757019E+02
 0.15266772439E+02 0.91588374693E+01 0.52479838608E+01 0.29018997563E+01 0.15617655507E+01
 0.82323256663E+00 0.42738878483E+00 0.21940136522E+00 0.11187580693E+00 0.57170450120E-01
 0.30038853134E-01 0.17699793635E-01 0.14141941206E-01 0.17700511450E-01 0.30040430349E-01
 0.57172974073E-01 0.11187922116E+00 0.21940716489E+00 0.42739543883E+00 0.82323072847E+00
 0.15617746310E+01 0.29018897001E+01 0.52480088858E+01 0.91588447000E+01 0.15266765049E+02
 0.24018776988E+02 0.35235418138E+02 0.47720226562E+02 0.33751362203E+02 0.39536254072E+02
 0.42498117253E+02 0.41887955118E+02 0.37862544010E+02 0.31422696617E+02 0.24018757019E+02
 0.17010391094E+02 0.11258025558E+02 0.70329810484E+01 0.41894997363E+01 0.24017067771E+01
 0.13355204352E+01 0.72508263504E+00 0.38644905134E+00 0.20304940397E+00 0.10559316793E+00
 0.54779384078E-01 0.28818375649E-01 0.16358285693E-01 0.11629417283E-01 0.12546019935E-01
 0.19447307469E-01 0.35582492798E-01 0.68139901526E-01 0.13144917073E+00 0.25193038687E+00
 0.47754775728E+00 0.89095648606E+00 0.16289407691E+01 0.29018897001E+01 0.50027035823E+01
 0.82747370910E+01 0.13008205463E+02 0.19236761751E+02 0.26502421043E+02 0.17963054314E+02
 0.21483968842E+02 0.23684967443E+02 0.24018787532E+02 0.22398883924E+02 0.19236779840E+02
 0.15266772439E+02 0.11258025558E+02 0.77705711429E+01 0.50627687421E+01 0.31408030202E+01
 0.18705751230E+01 0.10774777702E+01 0.60404454986E+00 0.33137516103E+00 0.17870672178E+00
 0.95076397014E-01 0.50250601721E-01 0.26690605374E-01 0.14869373664E-01 0.97203005404E-02
 0.90613636293E-02 0.12568603957E-01 0.21782822770E-01 0.40638658432E-01 0.76916763467E-01
 0.14501717262E+00 0.27018090003E+00 0.49567745536E+00 0.89095648606E+00 0.15617746310E+01
 0.26534576079E+01 0.43395223299E+01 0.67767548429E+01 0.10018554148E+02 0.13901201945E+02
 0.91589007865E+01 0.11112308015E+02 0.12502784924E+02 0.13008204311E+02 0.12502794182E+02
 0.11112279062E+02 0.91588374693E+01 0.70329810484E+01 0.50627687421E+01 0.34406248172E+01