       N       E                     dE             d eps       ncg     rms          rms(c)
DAV:   1     0.526101237729E+04    0.52610E+04   -0.18118E+05 10072   0.187E+03
DAV:   2     0.379421368941E+03   -0.48816E+04   -0.46160E+04  8816   0.639E+02
DAV:   3    -0.206096061449E+03   -0.58552E+03   -0.54238E+03  9448   0.235E+02
DAV:   4    -0.238305229019E+03   -0.32209E+02   -0.31299E+02  9840   0.509E+01
DAV:   5    -0.239004652095E+03   -0.69942E+00   -0.69464E+00  9640   0.838E+00    0.603E+01
DAV:   6    -0.220903993468E+03    0.18101E+02   -0.24340E+02 11364   0.763E+01    0.678E+01
DAV:   7    -0.205876888235E+03    0.15027E+02   -0.57086E+01 10648   0.509E+01    0.283E+01
DAV:   8    -0.206250303584E+03   -0.37342E+00   -0.97111E+00  9568   0.695E+00    0.137E+01
DAV:   9    -0.206200763672E+03    0.49540E-01   -0.19049E-01 10472   0.199E+00    0.247E+00
DAV:  10    -0.206196767519E+03    0.39962E-02   -0.10313E-01  9664   0.142E+00    0.115E+00
DAV:  11    -0.206197871740E+03   -0.11042E-02   -0.61645E-03 11328   0.340E-01    0.852E-01
DAV:  12    -0.206201530832E+03   -0.36591E-02   -0.82271E-03 11424   0.446E-01    0.390E-01
DAV:  13    -0.206204886034E+03   -0.33552E-02   -0.16078E-03 10928   0.134E-01    0.242E-01
DAV:  14    -0.206206287277E+03   -0.14012E-02   -0.81852E-04 10560   0.127E-01    0.964E-02
DAV:  15    -0.206206505780E+03   -0.21850E-03   -0.24120E-04 11272   0.556E-02    0.573E-02
DAV:  16    -0.206206557315E+03   -0.51535E-04   -0.78914E-05 11384   0.449E-02    0.166E-02
DAV:  17    -0.206206582196E+03   -0.24880E-04   -0.16803E-05  8240   0.143E-02    0.490E-03
DAV:  18    -0.206206583357E+03   -0.11607E-05   -0.48562E-07  5152   0.292E-03    0.248E-03
DAV:  19    -0.206206583425E+03   -0.68154E-07   -0.15356E-07  5112   0.164E-03
   1 F= -.20620658E+03 E0= -.20596270E+03  d E =-.487759E+00  mag=    10.8548
