 vasp.5.4.4.18Apr17-6-g9f103f2a35 (build Apr 28 2018 00:24:27) complex          
  
 executed on             LinuxIFC date 2021.03.19  19:37:15
 running on    8 total cores
 distrk:  each k-point on    8 cores,    1 groups
 distr:  one band on NCORES_PER_BAND=   1 cores,    8 groups


--------------------------------------------------------------------------------------------------------


 INCAR:
 POTCAR:    PAW_PBE Ni 02Aug2007                  

 ----------------------------------------------------------------------------- 
|                                                                             |
|           W    W    AA    RRRRR   N    N  II  N    N   GGGG   !!!           |
|           W    W   A  A   R    R  NN   N  II  NN   N  G    G  !!!           |
|           W    W  A    A  R    R  N N  N  II  N N  N  G       !!!           |
|           W WW W  AAAAAA  RRRRR   N  N N  II  N  N N  G  GGG   !            |
|           WW  WW  A    A  R   R   N   NN  II  N   NN  G    G                |
|           W    W  A    A  R    R  N    N  II  N    N   GGGG   !!!           |
|                                                                             |
|      For optimal performance we recommend to set                            |
|        NCORE= 4 - approx SQRT( number of cores)                             |
|      NCORE specifies how many cores store one orbital (NPAR=cpu/NCORE).     |
|      This setting can  greatly improve the performance of VASP for DFT.     |
|      The default,   NCORE=1            might be grossly inefficient         |
|      on modern multi-core architectures or massively parallel machines.     |
|      Do your own testing !!!!                                               |
|      Unfortunately you need to use the default for GW and RPA calculations. |
|      (for HF NCORE is supported but not extensively tested yet)             |
|                                                                             |
 ----------------------------------------------------------------------------- 

 POTCAR:    PAW_PBE Ni 02Aug2007                  
   SHA256 =  0534bc51ca8003dfef23f56753fef9fdd3e22eac8d719fccacb59f3e6b7a69c7 Ni
   COPYR  = (c) Copyright 02Aug2007 Georg Kresse                                
   COPYR  = This file is part of the software VASP. Any use, copying, and all ot
   COPYR  = If you do not have a valid VASP license, you may not use, copy or di
   VRHFIN =Ni:                                                                  
   LEXCH  = PE                                                                  
   EATOM  =  1077.6739 eV,   79.2068 Ry                                         
                                                                                
   TITEL  = PAW_PBE Ni 02Aug2007                                                
   LULTRA =        F    use ultrasoft PP ?                                      
   IUNSCR =        1    unscreen: 0-lin 1-nonlin 2-no                           
   RPACOR =    2.000    partial core radius                                     
   POMASS =   58.690; ZVAL   =   10.000    mass and valenz                      
   RCORE  =    2.300    outmost cutoff radius                                   
   RWIGS  =    2.430; RWIGS  =    1.286    wigner-seitz radius (au A)           
   ENMAX  =  269.532; ENMIN  =  202.149 eV                                      
   RCLOC  =    1.201    cutoff for local pot                                    
   LCOR   =        T    correct aug charges                                     
   LPAW   =        T    paw PP                                                  
   EAUG   =  544.565                                                            
   DEXC   =    0.000                                                            
   RMAX   =    2.357    core radius for proj-oper                               
   RAUG   =    1.300    factor for augmentation sphere                          
   RDEP   =    2.390    radius for radial grids                                 
   RDEPT  =    1.838    core radius for aug-charge                              
                                                                                
   Atomic configuration                                                         
    9 entries                                                                   
     n  l   j            E        occ.                                          
     1  0  0.50     -8206.4253   2.0000                                         
     2  0  0.50      -976.1748   2.0000                                         
     2  1  1.50      -839.0571   6.0000                                         
     3  0  0.50      -105.9991   2.0000                                         
     3  1  1.50       -66.4603   6.0000                                         
     3  2  2.50        -4.6458   9.0000                                         
     4  0  0.50        -4.4926   1.0000                                         
     4  1  1.50        -4.0817   0.0000                                         
     4  3  2.50        -1.3606   0.0000                                         
   Description                                                                  
     l       E           TYP  RCUT    TYP  RCUT                                 
     2     -4.6457903     23  2.300                                             
     2     -6.0063729     23  2.300                                             
     0     -4.4925590     23  2.300                                             
     0      5.0102601     23  2.300                                             
     1     -2.7211652     23  2.300                                             
     1     16.5183231     23  2.300                                             
  local pseudopotential read in
  partial core-charges read in
  partial kinetic energy density read in
  atomic valenz-charges read in
  non local Contribution for L=           2  read in
    real space projection operators read in
  non local Contribution for L=           2  read in
    real space projection operators read in
  non local Contribution for L=           0  read in
    real space projection operators read in
  non local Contribution for L=           0  read in
    real space projection operators read in
  non local Contribution for L=           1  read in
    real space projection operators read in
  non local Contribution for L=           1  read in
    real space projection operators read in
    PAW grid and wavefunctions read in
 
   number of l-projection  operators is LMAX  =           6
   number of lm-projection operators is LMMAX =          18
 
  PAW_PBE Ni 02Aug2007                  :
 energy of atom  1       EATOM=-1077.6739
 kinetic energy error for atom=    0.0030 (will be added to EATOM!!)
 
 
 POSCAR: Ni1 str #: 4                            
  positions in direct lattice
  No initial velocities read in
 exchange correlation table for  LEXCH =        8
   RHO(1)=    0.500       N(1)  =     2000
   RHO(2)=  100.500       N(2)  =     4000
 


--------------------------------------------------------------------------------------------------------


 ion  position               nearest neighbor table
   1  0.000  0.000  0.000-   2 2.48   4 2.48   3 2.48   3 2.48   2 2.48   4 2.48   4 2.48   2 2.48
                             2 2.48   4 2.48
   2  0.500  0.500  0.250-   3 2.48   1 2.48   4 2.48   4 2.48   1 2.48   3 2.48   1 2.48   3 2.48
                             1 2.48   3 2.48
   3  0.000  0.000  0.500-   4 2.48   2 2.48   1 2.48   1 2.48   2 2.48   4 2.48   2 2.48   4 2.48
                             2 2.48   4 2.48
   4  0.500  0.500  0.750-   1 2.48   3 2.48   2 2.48   2 2.48   1 2.48   3 2.48   3 2.48   1 2.48
                             1 2.48   3 2.48
 
  LATTYP: Found a simple orthorhombic cell.
 ALAT       =     2.4767001000
 B/A-ratio  =     1.4142135446
 C/A-ratio  =     1.9999999583
  
  Lattice vectors:
  
 A1 = (   2.4767001000,   0.0000000000,   0.0000000000)
 A2 = (  -0.0000001000,   2.8598469300,   2.0222171000)
 A3 = (   0.0000000000,  -2.8598469400,   4.0444342000)


Analysis of symmetry for initial positions (statically):
=====================================================================
 Subroutine PRICEL returns following result:
 
  LATTYP: Found a face centered cubic cell.
 ALAT       =     3.5025828309
  
  Lattice vectors:
  
 A1 = (  -1.2383500000,  -2.1448852000,   0.0000000000)
 A2 = (  -2.4767001000,   0.0000000000,   0.0000000000)
 A3 = (  -1.2383500000,  -0.7149617300,  -2.0222171000)
 
   4 primitive cells build up your supercell.
 

 Routine SETGRP: Setting up the symmetry group for a 
 simple orthorhombic supercell.


 Subroutine GETGRP returns: Found  8 space group operations
 (whereof  8 operations were pure point group operations)
 out of a pool of  8 trial point group operations.


The static configuration has the point symmetry D_2h.


Analysis of symmetry for dynamics (positions and initial velocities):
=====================================================================
 Subroutine PRICEL returns following result:
 
  LATTYP: Found a face centered cubic cell.
 ALAT       =     3.5025828309
  
  Lattice vectors:
  
 A1 = (  -1.2383500000,  -2.1448852000,   0.0000000000)
 A2 = (  -2.4767001000,   0.0000000000,   0.0000000000)
 A3 = (  -1.2383500000,  -0.7149617300,  -2.0222171000)
 
   4 primitive cells build up your supercell.
 

 Routine SETGRP: Setting up the symmetry group for a 
 simple orthorhombic supercell.


 Subroutine GETGRP returns: Found  8 space group operations
 (whereof  8 operations were pure point group operations)
 out of a pool of  8 trial point group operations.


The dynamic configuration has the point symmetry D_2h.


Analysis of structural, dynamic, and magnetic symmetry:
=====================================================================
 Subroutine PRICEL returns following result:
 
  LATTYP: Found a simple tetragonal cell.
 ALAT       =     2.4767001000
 C/A-ratio  =     1.4142135446
  
  Lattice vectors:
  
 A1 = (  -2.4767001000,   0.0000000000,   0.0000000000)
 A2 = (   0.0000000000,   1.4299234700,  -2.0222171000)
 A3 = (   0.0000001000,  -2.8598469300,  -2.0222171000)
 
   2 primitive cells build up your supercell.
 

 Routine SETGRP: Setting up the symmetry group for a 
 simple orthorhombic supercell.


 Subroutine GETGRP returns: Found  8 space group operations
 (whereof  4 operations were pure point group operations)
 out of a pool of  8 trial point group operations.


The magnetic configuration has the point symmetry C_2v.
 The point group associated with its full space group is D_2h.


 Subroutine INISYM returns: Found  8 space group operations
 (whereof  4 operations are pure point group operations),
 and found     2 'primitive' translations

 
 
 KPOINTS: k-points                                

Automatic generation of k-mesh.
Space group operators:
 irot       det(A)        alpha          n_x          n_y          n_z        tau_x        tau_y        tau_z
    1     1.000000     0.000000     1.000000     0.000000     0.000000     0.000000     0.000000     0.000000
    2     1.000000   180.000000     0.000000    -0.577350     0.816497     0.000000     0.000000     0.000000
    3    -1.000000   180.000000     0.000000    -0.816497    -0.577350     0.000000     0.000000     0.000000
    4    -1.000000   180.000000     1.000000     0.000000     0.000000     0.000000     0.000000     0.000000
    5    -1.000000     0.000000     1.000000     0.000000     0.000000    -0.500000    -0.500000    -0.250000
    6    -1.000000   180.000000     0.000000    -0.577350     0.816497    -0.500000    -0.500000    -0.250000
    7     1.000000   180.000000     0.000000    -0.816497    -0.577350    -0.500000    -0.500000    -0.250000
    8     1.000000   180.000000     1.000000     0.000000     0.000000    -0.500000    -0.500000    -0.250000
 
 Subroutine IBZKPT returns following result:
 ===========================================
 
 Found    216 irreducible k-points:
 
 Following reciprocal coordinates:
            Coordinates               Weight
  0.000000  0.000000  0.000000      1.000000
  0.090909 -0.000000  0.000000      2.000000
  0.181818 -0.000000  0.000000      2.000000
  0.272727  0.000000 -0.000000      2.000000
  0.363636 -0.000000  0.000000      2.000000
  0.454545  0.000000  0.000000      2.000000
  0.000000  0.090909  0.000000      2.000000
  0.090909  0.090909  0.000000      4.000000
  0.181818  0.090909  0.000000      4.000000
  0.272727  0.090909 -0.000000      4.000000
  0.363636  0.090909 -0.000000      4.000000
  0.454545  0.090909 -0.000000      4.000000
  0.000000  0.181818  0.000000      2.000000
  0.090909  0.181818  0.000000      4.000000
  0.181818  0.181818  0.000000      4.000000
  0.272727  0.181818  0.000000      4.000000
  0.363636  0.181818  0.000000      4.000000
  0.454545  0.181818  0.000000      4.000000
  0.000000  0.272727  0.000000      2.000000
  0.090909  0.272727  0.000000      4.000000
  0.181818  0.272727  0.000000      4.000000
  0.272727  0.272727  0.000000      4.000000
  0.363636  0.272727  0.000000      4.000000
  0.454545  0.272727  0.000000      4.000000
  0.000000  0.363636  0.000000      2.000000
  0.090909  0.363636  0.000000      4.000000
  0.181818  0.363636  0.000000      4.000000
  0.272727  0.363636 -0.000000      4.000000
  0.363636  0.363636  0.000000      4.000000
  0.454545  0.363636  0.000000      4.000000
  0.000000  0.454545 -0.000000      2.000000
  0.090909  0.454545 -0.000000      4.000000
  0.181818  0.454545  0.000000      4.000000
  0.272727  0.454545 -0.000000      4.000000
  0.363636  0.454545 -0.000000      4.000000
  0.454545  0.454545 -0.000000      4.000000
  0.000000 -0.000000  0.090909      2.000000
  0.090909 -0.000000  0.090909      4.000000
  0.181818 -0.000000  0.090909      4.000000
  0.272727 -0.000000  0.090909      4.000000
  0.363636  0.000000  0.090909      4.000000
  0.454545  0.000000  0.090909      4.000000
  0.000000  0.090909  0.090909      4.000000
  0.090909  0.090909  0.090909      8.000000
  0.181818  0.090909  0.090909      8.000000
  0.272727  0.090909  0.090909      8.000000
  0.363636  0.090909  0.090909      8.000000
  0.454545  0.090909  0.090909      8.000000
  0.000000  0.181818  0.090909      4.000000
  0.090909  0.181818  0.090909      8.000000
  0.181818  0.181818  0.090909      8.000000
  0.272727  0.181818  0.090909      8.000000
  0.363636  0.181818  0.090909      8.000000
  0.454545  0.181818  0.090909      8.000000
  0.000000  0.272727  0.090909      4.000000
  0.090909  0.272727  0.090909      8.000000
  0.181818  0.272727  0.090909      8.000000
  0.272727  0.272727  0.090909      8.000000
  0.363636  0.272727  0.090909      8.000000
  0.454545  0.272727  0.090909      8.000000
  0.000000  0.363636  0.090909      4.000000
  0.090909  0.363636  0.090909      8.000000
  0.181818  0.363636  0.090909      8.000000
  0.272727  0.363636  0.090909      8.000000
  0.363636  0.363636  0.090909      8.000000
  0.454545  0.363636  0.090909      8.000000
  0.000000  0.454545  0.090909      4.000000
  0.090909  0.454545  0.090909      8.000000
  0.181818  0.454545  0.090909      8.000000
  0.272727  0.454545  0.090909      8.000000
  0.363636  0.454545  0.090909      8.000000
  0.454545  0.454545  0.090909      8.000000
  0.000000 -0.000000  0.181818      2.000000
  0.090909 -0.000000  0.181818      4.000000
  0.181818 -0.000000  0.181818      4.000000
  0.272727 -0.000000  0.181818      4.000000
  0.363636 -0.000000  0.181818      4.000000
  0.454545  0.000000  0.181818      4.000000
  0.000000  0.090909  0.181818      4.000000
  0.090909  0.090909  0.181818      8.000000
  0.181818  0.090909  0.181818      8.000000
  0.272727  0.090909  0.181818      8.000000
  0.363636  0.090909  0.181818      8.000000
  0.454545  0.090909  0.181818      8.000000
  0.000000  0.181818  0.181818      4.000000
  0.090909  0.181818  0.181818      8.000000
  0.181818  0.181818  0.181818      8.000000
  0.272727  0.181818  0.181818      8.000000
  0.363636  0.181818  0.181818      8.000000
  0.454545  0.181818  0.181818      8.000000
  0.000000  0.272727  0.181818      4.000000
  0.090909  0.272727  0.181818      8.000000
  0.181818  0.272727  0.181818      8.000000
  0.272727  0.272727  0.181818      8.000000
  0.363636  0.272727  0.181818      8.000000
  0.454545  0.272727  0.181818      8.000000
  0.000000  0.363636  0.181818      4.000000
  0.090909  0.363636  0.181818      8.000000
  0.181818  0.363636  0.181818      8.000000
  0.272727  0.363636  0.181818      8.000000
  0.363636  0.363636  0.181818      8.000000
  0.454545  0.363636  0.181818      8.000000
  0.000000  0.454545  0.181818      4.000000
  0.090909  0.454545  0.181818      8.000000
  0.181818  0.454545  0.181818      8.000000
  0.272727  0.454545  0.181818      8.000000
  0.363636  0.454545  0.181818      8.000000
  0.454545  0.454545  0.181818      8.000000
  0.000000  0.000000  0.272727      2.000000
  0.090909 -0.000000  0.272727      4.000000
  0.181818 -0.000000  0.272727      4.000000
  0.272727 -0.000000  0.272727      4.000000
  0.363636  0.000000  0.272727      4.000000
  0.454545  0.000000  0.272727      4.000000
  0.000000  0.090909  0.272727      4.000000
  0.090909  0.090909  0.272727      8.000000
  0.181818  0.090909  0.272727      8.000000
  0.272727  0.090909  0.272727      8.000000
  0.363636  0.090909  0.272727      8.000000
  0.454545  0.090909  0.272727      8.000000
  0.000000  0.181818  0.272727      4.000000
  0.090909  0.181818  0.272727      8.000000
  0.181818  0.181818  0.272727      8.000000
  0.272727  0.181818  0.272727      8.000000
  0.363636  0.181818  0.272727      8.000000
  0.454545  0.181818  0.272727      8.000000
  0.000000  0.272727  0.272727      4.000000
  0.090909  0.272727  0.272727      8.000000
  0.181818  0.272727  0.272727      8.000000
  0.272727  0.272727  0.272727      8.000000
  0.363636  0.272727  0.272727      8.000000
  0.454545  0.272727  0.272727      8.000000
  0.000000  0.363636  0.272727      4.000000
  0.090909  0.363636  0.272727      8.000000
  0.181818  0.363636  0.272727      8.000000
  0.272727  0.363636  0.272727      8.000000
  0.363636  0.363636  0.272727      8.000000
  0.454545  0.363636  0.272727      8.000000
  0.000000  0.454545  0.272727      4.000000
  0.090909  0.454545  0.272727      8.000000
  0.181818  0.454545  0.272727      8.000000
  0.272727  0.454545  0.272727      8.000000
  0.363636  0.454545  0.272727      8.000000
  0.454545  0.454545  0.272727      8.000000
  0.000000 -0.000000  0.363636      2.000000
  0.090909 -0.000000  0.363636      4.000000
  0.181818 -0.000000  0.363636      4.000000
  0.272727 -0.000000  0.363636      4.000000
  0.363636 -0.000000  0.363636      4.000000
  0.454545 -0.000000  0.363636      4.000000
  0.000000  0.090909  0.363636      4.000000
  0.090909  0.090909  0.363636      8.000000
  0.181818  0.090909  0.363636      8.000000
  0.272727  0.090909  0.363636      8.000000
  0.363636  0.090909  0.363636      8.000000
  0.454545  0.090909  0.363636      8.000000
  0.000000  0.181818  0.363636      4.000000
  0.090909  0.181818  0.363636      8.000000
  0.181818  0.181818  0.363636      8.000000
  0.272727  0.181818  0.363636      8.000000
  0.363636  0.181818  0.363636      8.000000
  0.454545  0.181818  0.363636      8.000000
  0.000000  0.272727  0.363636      4.000000
  0.090909  0.272727  0.363636      8.000000
  0.181818  0.272727  0.363636      8.000000
  0.272727  0.272727  0.363636      8.000000
  0.363636  0.272727  0.363636      8.000000
  0.454545  0.272727  0.363636      8.000000
  0.000000  0.363636  0.363636      4.000000
  0.090909  0.363636  0.363636      8.000000
  0.181818  0.363636  0.363636      8.000000
  0.272727  0.363636  0.363636      8.000000
  0.363636  0.363636  0.363636      8.000000
  0.454545  0.363636  0.363636      8.000000
  0.000000  0.454545  0.363636      4.000000
  0.090909  0.454545  0.363636      8.000000
  0.181818  0.454545  0.363636      8.000000
  0.272727  0.454545  0.363636      8.000000
  0.363636  0.454545  0.363636      8.000000
  0.454545  0.454545  0.363636      8.000000
  0.000000 -0.000000  0.454545      2.000000
  0.090909 -0.000000  0.454545      4.000000
  0.181818 -0.000000  0.454545      4.000000
  0.272727 -0.000000  0.454545      4.000000
  0.363636 -0.000000  0.454545      4.000000
  0.454545  0.000000  0.454545      4.000000
  0.000000  0.090909  0.454545      4.000000
  0.090909  0.090909  0.454545      8.000000
  0.181818  0.090909  0.454545      8.000000
  0.272727  0.090909  0.454545      8.000000
  0.363636  0.090909  0.454545      8.000000
  0.454545  0.090909  0.454545      8.000000
  0.000000  0.181818  0.454545      4.000000
  0.090909  0.181818  0.454545      8.000000
  0.181818  0.181818  0.454545      8.000000
  0.272727  0.181818  0.454545      8.000000
  0.363636  0.181818  0.454545      8.000000
  0.454545  0.181818  0.454545      8.000000
  0.000000  0.272727  0.454545      4.000000
  0.090909  0.272727  0.454545      8.000000
  0.181818  0.272727  0.454545      8.000000
  0.272727  0.272727  0.454545      8.000000
  0.363636  0.272727  0.454545      8.000000
  0.454545  0.272727  0.454545      8.000000
  0.000000  0.363636  0.454545      4.000000
  0.090909  0.363636  0.454545      8.000000
  0.181818  0.363636  0.454545      8.000000
  0.272727  0.363636  0.454545      8.000000
  0.363636  0.363636  0.454545      8.000000
  0.454545  0.363636  0.454545      8.000000
  0.000000  0.454545  0.454545      4.000000
  0.090909  0.454545  0.454545      8.000000
  0.181818  0.454545  0.454545      8.000000
  0.272727  0.454545  0.454545      8.000000
  0.363636  0.454545  0.454545      8.000000
  0.454545  0.454545  0.454545      8.000000
 
 Following cartesian coordinates:
            Coordinates               Weight
  0.000000  0.000000  0.000000      1.000000
  0.036706  0.000000  0.000000      2.000000
  0.073411  0.000000  0.000000      2.000000
  0.110117  0.000000  0.000000      2.000000
  0.146823  0.000000  0.000000      2.000000
  0.183529  0.000000  0.000000      2.000000
  0.000000  0.021192  0.014985      2.000000
  0.036706  0.021192  0.014985      4.000000
  0.073411  0.021192  0.014985      4.000000
  0.110117  0.021192  0.014985      4.000000
  0.146823  0.021192  0.014985      4.000000
  0.183529  0.021192  0.014985      4.000000
  0.000000  0.042384  0.029970      2.000000
  0.036706  0.042384  0.029970      4.000000
  0.073411  0.042384  0.029970      4.000000
  0.110117  0.042384  0.029970      4.000000
  0.146823  0.042384  0.029970      4.000000
  0.183529  0.042384  0.029970      4.000000
  0.000000  0.063576  0.044955      2.000000
  0.036706  0.063576  0.044955      4.000000
  0.073411  0.063576  0.044955      4.000000
  0.110117  0.063576  0.044955      4.000000
  0.146823  0.063576  0.044955      4.000000
  0.183529  0.063576  0.044955      4.000000
  0.000000  0.084768  0.059940      2.000000
  0.036706  0.084768  0.059940      4.000000
  0.073411  0.084768  0.059940      4.000000
  0.110117  0.084768  0.059940      4.000000
  0.146823  0.084768  0.059940      4.000000
  0.183529  0.084768  0.059940      4.000000
  0.000000  0.105960  0.074925      2.000000
  0.036706  0.105960  0.074925      4.000000
  0.073411  0.105960  0.074925      4.000000
  0.110117  0.105960  0.074925      4.000000
  0.146823  0.105960  0.074925      4.000000
  0.183529  0.105960  0.074925      4.000000
  0.000000 -0.010596  0.014985      2.000000
  0.036706 -0.010596  0.014985      4.000000
  0.073411 -0.010596  0.014985      4.000000
  0.110117 -0.010596  0.014985      4.000000
  0.146823 -0.010596  0.014985      4.000000
  0.183529 -0.010596  0.014985      4.000000
  0.000000  0.010596  0.029970      4.000000
  0.036706  0.010596  0.029970      8.000000
  0.073411  0.010596  0.029970      8.000000
  0.110117  0.010596  0.029970      8.000000
  0.146823  0.010596  0.029970      8.000000
  0.183529  0.010596  0.029970      8.000000
  0.000000  0.031788  0.044955      4.000000
  0.036706  0.031788  0.044955      8.000000
  0.073411  0.031788  0.044955      8.000000
  0.110117  0.031788  0.044955      8.000000
  0.146823  0.031788  0.044955      8.000000
  0.183529  0.031788  0.044955      8.000000
  0.000000  0.052980  0.059940      4.000000
  0.036706  0.052980  0.059940      8.000000
  0.073411  0.052980  0.059940      8.000000
  0.110117  0.052980  0.059940      8.000000
  0.146823  0.052980  0.059940      8.000000
  0.183529  0.052980  0.059940      8.000000
  0.000000  0.074172  0.074925      4.000000
  0.036706  0.074172  0.074925      8.000000
  0.073411  0.074172  0.074925      8.000000
  0.110117  0.074172  0.074925      8.000000
  0.146823  0.074172  0.074925      8.000000
  0.183529  0.074172  0.074925      8.000000
  0.000000  0.095364  0.089910      4.000000
  0.036706  0.095364  0.089910      8.000000
  0.073411  0.095364  0.089910      8.000000
  0.110117  0.095364  0.089910      8.000000
  0.146823  0.095364  0.089910      8.000000
  0.183529  0.095364  0.089910      8.000000
  0.000000 -0.021192  0.029970      2.000000
  0.036706 -0.021192  0.029970      4.000000
  0.073411 -0.021192  0.029970      4.000000
  0.110117 -0.021192  0.029970      4.000000
  0.146823 -0.021192  0.029970      4.000000
  0.183529 -0.021192  0.029970      4.000000
  0.000000  0.000000  0.044955      4.000000
  0.036706  0.000000  0.044955      8.000000
  0.073411  0.000000  0.044955      8.000000
  0.110117  0.000000  0.044955      8.000000
  0.146823  0.000000  0.044955      8.000000
  0.183529  0.000000  0.044955      8.000000
  0.000000  0.021192  0.059940      4.000000
  0.036706  0.021192  0.059940      8.000000
  0.073411  0.021192  0.059940      8.000000
  0.110117  0.021192  0.059940      8.000000
  0.146823  0.021192  0.059940      8.000000
  0.183529  0.021192  0.059940      8.000000
  0.000000  0.042384  0.074925      4.000000
  0.036706  0.042384  0.074925      8.000000
  0.073411  0.042384  0.074925      8.000000
  0.110117  0.042384  0.074925      8.000000
  0.146823  0.042384  0.074925      8.000000
  0.183529  0.042384  0.074925      8.000000
  0.000000  0.063576  0.089910      4.000000
  0.036706  0.063576  0.089910      8.000000
  0.073411  0.063576  0.089910      8.000000
  0.110117  0.063576  0.089910      8.000000
  0.146823  0.063576  0.089910      8.000000
  0.183529  0.063576  0.089910      8.000000
  0.000000  0.084768  0.104895      4.000000
  0.036706  0.084768  0.104895      8.000000
  0.073411  0.084768  0.104895      8.000000
  0.110117  0.084768  0.104895      8.000000
  0.146823  0.084768  0.104895      8.000000
  0.183529  0.084768  0.104895      8.000000
  0.000000 -0.031788  0.044955      2.000000
  0.036706 -0.031788  0.044955      4.000000
  0.073411 -0.031788  0.044955      4.000000
  0.110117 -0.031788  0.044955      4.000000
  0.146823 -0.031788  0.044955      4.000000
  0.183529 -0.031788  0.044955      4.000000
  0.000000 -0.010596  0.059940      4.000000
  0.036706 -0.010596  0.059940      8.000000
  0.073411 -0.010596  0.059940      8.000000
  0.110117 -0.010596  0.059940      8.000000
  0.146823 -0.010596  0.059940      8.000000
  0.183529 -0.010596  0.059940      8.000000
  0.000000  0.010596  0.074925      4.000000
  0.036706  0.010596  0.074925      8.000000
  0.073411  0.010596  0.074925      8.000000
  0.110117  0.010596  0.074925      8.000000
  0.146823  0.010596  0.074925      8.000000
  0.183529  0.010596  0.074925      8.000000
  0.000000  0.031788  0.089910      4.000000
  0.036706  0.031788  0.089910      8.000000
  0.073411  0.031788  0.089910      8.000000
  0.110117  0.031788  0.089910      8.000000
  0.146823  0.031788  0.089910      8.000000
  0.183529  0.031788  0.089910      8.000000
  0.000000  0.052980  0.104895      4.000000
  0.036706  0.052980  0.104895      8.000000
  0.073411  0.052980  0.104895      8.000000
  0.110117  0.052980  0.104895      8.000000
  0.146823  0.052980  0.104895      8.000000
  0.183529  0.052980  0.104895      8.000000
  0.000000  0.074172  0.119880      4.000000
  0.036706  0.074172  0.119880      8.000000
  0.073411  0.074172  0.119880      8.000000
  0.110117  0.074172  0.119880      8.000000
  0.146823  0.074172  0.119880      8.000000
  0.183529  0.074172  0.119880      8.000000
  0.000000 -0.042384  0.059940      2.000000
  0.036706 -0.042384  0.059940      4.000000
  0.073411 -0.042384  0.059940      4.000000
  0.110117 -0.042384  0.059940      4.000000
  0.146823 -0.042384  0.059940      4.000000
  0.183529 -0.042384  0.059940      4.000000
  0.000000 -0.021192  0.074925      4.000000
  0.036706 -0.021192  0.074925      8.000000
  0.073411 -0.021192  0.074925      8.000000
  0.110117 -0.021192  0.074925      8.000000
  0.146823 -0.021192  0.074925      8.000000
  0.183529 -0.021192  0.074925      8.000000
  0.000000  0.000000  0.089910      4.000000
  0.036706  0.000000  0.089910      8.000000
  0.073411  0.000000  0.089910      8.000000
  0.110117  0.000000  0.089910      8.000000
  0.146823  0.000000  0.089910      8.000000
  0.183529  0.000000  0.089910      8.000000
  0.000000  0.021192  0.104895      4.000000
  0.036706  0.021192  0.104895      8.000000
  0.073411  0.021192  0.104895      8.000000
  0.110117  0.021192  0.104895      8.000000
  0.146823  0.021192  0.104895      8.000000
  0.183529  0.021192  0.104895      8.000000
  0.000000  0.042384  0.119880      4.000000
  0.036706  0.042384  0.119880      8.000000
  0.073411  0.042384  0.119880      8.000000
  0.110117  0.042384  0.119880      8.000000
  0.146823  0.042384  0.119880      8.000000
  0.183529  0.042384  0.119880      8.000000
  0.000000  0.063576  0.134865      4.000000
  0.036706  0.063576  0.134865      8.000000
  0.073411  0.063576  0.134865      8.000000
  0.110117  0.063576  0.134865      8.000000
  0.146823  0.063576  0.134865      8.000000
  0.183529  0.063576  0.134865      8.000000
  0.000000 -0.052980  0.074925      2.000000
  0.036706 -0.052980  0.074925      4.000000
  0.073411 -0.052980  0.074925      4.000000
  0.110117 -0.052980  0.074925      4.000000
  0.146823 -0.052980  0.074925      4.000000
  0.183529 -0.052980  0.074925      4.000000
  0.000000 -0.031788  0.089910      4.000000
  0.036706 -0.031788  0.089910      8.000000
  0.073411 -0.031788  0.089910      8.000000
  0.110117 -0.031788  0.089910      8.000000
  0.146823 -0.031788  0.089910      8.000000
  0.183529 -0.031788  0.089910      8.000000
  0.000000 -0.010596  0.104895      4.000000
  0.036706 -0.010596  0.104895      8.000000
  0.073411 -0.010596  0.104895      8.000000
  0.110117 -0.010596  0.104895      8.000000
  0.146823 -0.010596  0.104895      8.000000
  0.183529 -0.010596  0.104895      8.000000
  0.000000  0.010596  0.119880      4.000000
  0.036706  0.010596  0.119880      8.000000
  0.073411  0.010596  0.119880      8.000000
  0.110117  0.010596  0.119880      8.000000
  0.146823  0.010596  0.119880      8.000000
  0.183529  0.010596  0.119880      8.000000
  0.000000  0.031788  0.134865      4.000000
  0.036706  0.031788  0.134865      8.000000
  0.073411  0.031788  0.134865      8.000000
  0.110117  0.031788  0.134865      8.000000
  0.146823  0.031788  0.134865      8.000000
  0.183529  0.031788  0.134865      8.000000
  0.000000  0.052980  0.149851      4.000000
  0.036706  0.052980  0.149851      8.000000
  0.073411  0.052980  0.149851      8.000000
  0.110117  0.052980  0.149851      8.000000
  0.146823  0.052980  0.149851      8.000000
  0.183529  0.052980  0.149851      8.000000
 


--------------------------------------------------------------------------------------------------------




 Dimension of arrays:
   k-points           NKPTS =    216   k-points in BZ     NKDIM =    216   number of bands    NBANDS=     24
   number of dos      NEDOS =    301   number of ions     NIONS =      4
   non local maximal  LDIM  =      6   non local SUM 2l+1 LMDIM =     18
   total plane-waves  NPLWV =  20160
   max r-space proj   IRMAX =      1   max aug-charges    IRDMAX=  15406
   dimension x,y,z NGX =    18 NGY =   28 NGZ =   40
   dimension x,y,z NGXF=    36 NGYF=   56 NGZF=   80
   support grid    NGXF=    36 NGYF=   56 NGZF=   80
   ions per type =               4
   NGX,Y,Z   is equivalent  to a cutoff of  12.08, 13.29, 13.42 a.u.
   NGXF,Y,Z  is equivalent  to a cutoff of  24.16, 26.58, 26.85 a.u.

 SYSTEM =  unknown system                          
 POSCAR =  Ni1 str #: 4                            

 Startparameter for this run:
   NWRITE =      2    write-flag & timer
   PREC   = accura    normal or accurate (medium, high low for compatibility)
   ISTART =      0    job   : 0-new  1-cont  2-samecut
   ICHARG =      2    charge: 1-file 2-atom 10-const
   ISPIN  =      2    spin polarized calculation?
   LNONCOLLINEAR =      F non collinear calculations
   LSORBIT =      F    spin-orbit coupling
   INIWAV =      1    electr: 0-lowe 1-rand  2-diag
   LASPH  =      T    aspherical Exc in radial PAW
   METAGGA=      F    non-selfconsistent MetaGGA calc.

 Electronic Relaxation 1
   ENCUT  =  520.0 eV  38.22 Ry    6.18 a.u.   4.61  6.51  9.21*2*pi/ulx,y,z
   ENINI  =  520.0     initial cutoff
   ENAUG  =  544.6 eV  augmentation charge cutoff
   NELM   =     60;   NELMIN=  2; NELMDL= -5     # of ELM steps 
   EDIFF  = 0.1E-05   stopping-criterion for ELM
   LREAL  =      F    real-space projection
   NLSPLINE    = F    spline interpolate recip. space projectors
   LCOMPAT=      F    compatible to vasp.4.4
   GGA_COMPAT  = T    GGA compatible to vasp.4.4-vasp.4.6
   LMAXPAW     = -100 max onsite density
   LMAXMIX     =    2 max onsite mixed and CHGCAR
   VOSKOWN=      0    Vosko Wilk Nusair interpolation
   ROPT   =    0.00000
 Ionic relaxation
   EDIFFG = 0.1E-04   stopping-criterion for IOM
   NSW    =      0    number of steps for IOM
   NBLOCK =      1;   KBLOCK =      1    inner block; outer block 
   IBRION =     -1    ionic relax: 0-MD 1-quasi-New 2-CG
   NFREE  =      1    steps in history (QN), initial steepest desc. (CG)
   ISIF   =      2    stress and relaxation
   IWAVPR =     10    prediction:  0-non 1-charg 2-wave 3-comb
   ISYM   =      2    0-nonsym 1-usesym 2-fastsym
   LCORR  =      T    Harris-Foulkes like correction to forces

   POTIM  = 0.5000    time-step for ionic-motion
   TEIN   =    0.0    initial temperature
   TEBEG  =    0.0;   TEEND  =   0.0 temperature during run
   SMASS  =  -3.00    Nose mass-parameter (am)
   estimated Nose-frequenzy (Omega)   =  0.10E-29 period in steps =****** mass=  -0.140E-27a.u.
   SCALEE = 1.0000    scale energy and forces
   NPACO  =    256;   APACO  = 16.0  distance and # of slots for P.C.
   PSTRESS=    0.0 pullay stress

  Mass of Ions in am
   POMASS =  58.69
  Ionic Valenz
   ZVAL   =  10.00
  Atomic Wigner-Seitz radii
   RWIGS  =  -1.00
  virtual crystal weights 
   VCA    =   1.00
   NELECT =      40.0000    total number of electrons
   NUPDOWN=      -1.0000    fix difference up-down

 DOS related values:
   EMIN   =  10.00;   EMAX   =-10.00  energy-range for DOS
   EFERMI =   0.00
   ISMEAR =     1;   SIGMA  =   0.20  broadening in eV -4-tet -1-fermi 0-gaus

 Electronic relaxation 2 (details)
   IALGO  =     38    algorithm
   LDIAG  =      T    sub-space diagonalisation (order eigenvalues)
   LSUBROT=      F    optimize rotation matrix (better conditioning)
   TURBO    =      0    0=normal 1=particle mesh
   IRESTART =      0    0=no restart 2=restart with 2 vectors
   NREBOOT  =      0    no. of reboots
   NMIN     =      0    reboot dimension
   EREF     =   0.00    reference energy to select bands
   IMIX   =      4    mixing-type and parameters
     AMIX     =   0.40;   BMIX     =  1.00
     AMIX_MAG =   1.60;   BMIX_MAG =  1.00
     AMIN     =   0.10
     WC   =   100.;   INIMIX=   1;  MIXPRE=   1;  MAXMIX= -45

 Intra band minimization:
   WEIMIN = 0.0000     energy-eigenvalue tresh-hold
   EBREAK =  0.10E-07  absolut break condition
   DEPER  =   0.30     relativ break condition  

   TIME   =   0.40     timestep for ELM

  volume/ion in A,a.u.               =      10.74        72.49
  Fermi-wavevector in a.u.,A,eV,Ry     =   1.598477  3.020684 34.764640  2.555129
  Thomas-Fermi vector in A             =   2.695921
 
 Write flags
   LWAVE        =      F    write WAVECAR
   LDOWNSAMPLE  =      F    k-point downsampling of WAVECAR
   LCHARG       =      F    write CHGCAR
   LVTOT        =      F    write LOCPOT, total local potential
   LVHAR        =      F    write LOCPOT, Hartree potential only
   LELF         =      F    write electronic localiz. function (ELF)
   LORBIT       =     11    0 simple, 1 ext, 2 COOP (PROOUT), +10 PAW based schemes


 Dipole corrections
   LMONO  =      F    monopole corrections only (constant potential shift)
   LDIPOL =      F    correct potential (dipole corrections)
   IDIPOL =      0    1-x, 2-y, 3-z, 4-all directions 
   EPSILON=  1.0000000 bulk dielectric constant

 Exchange correlation treatment:
   GGA     =    --    GGA type
   LEXCH   =     8    internal setting for exchange type
   VOSKOWN=      0    Vosko Wilk Nusair interpolation
   LHFCALC =     F    Hartree Fock is set to
   LHFONE  =     F    Hartree Fock one center treatment
   AEXX    =    0.0000 exact exchange contribution

 Linear response parameters
   LEPSILON=     F    determine dielectric tensor
   LRPA    =     F    only Hartree local field effects (RPA)
   LNABLA  =     F    use nabla operator in PAW spheres
   LVEL    =     F    velocity operator in full k-point grid
   LINTERFAST=   F  fast interpolation
   KINTER  =     0    interpolate to denser k-point grid
   CSHIFT  =0.1000    complex shift for real part using Kramers Kronig
   OMEGAMAX=  -1.0    maximum frequency
   DEG_THRESHOLD= 0.2000000E-02 threshold for treating states as degnerate
   RTIME   =   -0.100 relaxation time in fs
  (WPLASMAI=    0.000 imaginary part of plasma frequency in eV, 0.658/RTIME)
   DFIELD  = 0.0000000 0.0000000 0.0000000 field for delta impulse in time
 
 Orbital magnetization related:
   ORBITALMAG=     F  switch on orbital magnetization
   LCHIMAG   =     F  perturbation theory with respect to B field
   DQ        =  0.001000  dq finite difference perturbation B field
   LLRAUG    =     F  two centre corrections for induced B field



--------------------------------------------------------------------------------------------------------


 Static calculation
 charge density and potential will be updated during run
 spin polarized calculation
 Variant of blocked Davidson
 Davidson routine will perform the subspace rotation
 perform sub-space diagonalisation
    after iterative eigenvector-optimisation
 modified Broyden-mixing scheme, WC =      100.0
 initial mixing is a Kerker type mixing with AMIX =  0.4000 and BMIX =      1.0000
 Hartree-type preconditioning will be used
 using additional bands            4
 reciprocal scheme for non local part
 use partial core corrections
 calculate Harris-corrections to forces 
   (improved forces if not selfconsistent)
 use gradient corrections 
 use of overlap-Matrix (Vanderbilt PP)
 Methfessel and Paxton  Order N= 1 SIGMA  =   0.20


--------------------------------------------------------------------------------------------------------


  energy-cutoff  :      520.00
  volume of cell :       42.97
      direct lattice vectors                 reciprocal lattice vectors
     2.476700100  0.000000000  0.000000000     0.403763056  0.000000009  0.000000007
    -0.000000100  2.859846930  2.022217100     0.000000000  0.233112709  0.164835583
     0.000000000 -2.859846940  4.044434200     0.000000000 -0.116556355  0.164835582

  length of vectors
     2.476700100  3.502582827  4.953400097     0.403763056  0.285503598  0.201881532


 
 k-points in units of 2pi/SCALE and weight: k-points                                
   0.00000000  0.00000000  0.00000000       0.001
   0.03670573  0.00000000  0.00000000       0.002
   0.07341146  0.00000000  0.00000000       0.002
   0.11011720  0.00000000  0.00000000       0.002
   0.14682293  0.00000000  0.00000000       0.002
   0.18352866  0.00000000  0.00000000       0.002
   0.00000000  0.02119206  0.01498505       0.002
   0.03670573  0.02119207  0.01498505       0.003
   0.07341146  0.02119207  0.01498505       0.003
   0.11011720  0.02119207  0.01498505       0.003
   0.14682293  0.02119207  0.01498506       0.003
   0.18352866  0.02119207  0.01498506       0.003
   0.00000000  0.04238413  0.02997011       0.002
   0.03670573  0.04238413  0.02997011       0.003
   0.07341146  0.04238413  0.02997011       0.003
   0.11011720  0.04238413  0.02997011       0.003
   0.14682293  0.04238413  0.02997011       0.003
   0.18352866  0.04238413  0.02997011       0.003
   0.00000000  0.06357619  0.04495516       0.002
   0.03670573  0.06357619  0.04495516       0.003
   0.07341146  0.06357620  0.04495516       0.003
   0.11011720  0.06357620  0.04495516       0.003
   0.14682293  0.06357620  0.04495516       0.003
   0.18352866  0.06357620  0.04495516       0.003
   0.00000000  0.08476826  0.05994021       0.002
   0.03670573  0.08476826  0.05994021       0.003
   0.07341146  0.08476826  0.05994021       0.003
   0.11011720  0.08476826  0.05994021       0.003
   0.14682293  0.08476826  0.05994021       0.003
   0.18352866  0.08476826  0.05994021       0.003
   0.00000000  0.10596032  0.07492526       0.002
   0.03670573  0.10596032  0.07492527       0.003
   0.07341146  0.10596032  0.07492527       0.003
   0.11011720  0.10596032  0.07492527       0.003
   0.14682293  0.10596033  0.07492527       0.003
   0.18352866  0.10596033  0.07492527       0.003
   0.00000000 -0.01059603  0.01498505       0.002
   0.03670573 -0.01059603  0.01498505       0.003
   0.07341146 -0.01059603  0.01498505       0.003
   0.11011720 -0.01059603  0.01498505       0.003
   0.14682293 -0.01059603  0.01498506       0.003
   0.18352866 -0.01059603  0.01498506       0.003
   0.00000000  0.01059603  0.02997011       0.003
   0.03670573  0.01059603  0.02997011       0.006
   0.07341146  0.01059603  0.02997011       0.006
   0.11011720  0.01059603  0.02997011       0.006
   0.14682293  0.01059604  0.02997011       0.006
   0.18352866  0.01059604  0.02997011       0.006
   0.00000000  0.03178810  0.04495516       0.003
   0.03670573  0.03178810  0.04495516       0.006
   0.07341146  0.03178810  0.04495516       0.006
   0.11011720  0.03178810  0.04495516       0.006
   0.14682293  0.03178810  0.04495516       0.006
   0.18352866  0.03178810  0.04495516       0.006
   0.00000000  0.05298016  0.05994021       0.003
   0.03670573  0.05298016  0.05994021       0.006
   0.07341146  0.05298016  0.05994021       0.006
   0.11011720  0.05298016  0.05994021       0.006
   0.14682293  0.05298016  0.05994021       0.006
   0.18352866  0.05298017  0.05994021       0.006
   0.00000000  0.07417223  0.07492526       0.003
   0.03670573  0.07417223  0.07492527       0.006
   0.07341146  0.07417223  0.07492527       0.006
   0.11011720  0.07417223  0.07492527       0.006
   0.14682293  0.07417223  0.07492527       0.006
   0.18352866  0.07417223  0.07492527       0.006
   0.00000000  0.09536429  0.08991032       0.003
   0.03670573  0.09536429  0.08991032       0.006
   0.07341146  0.09536429  0.08991032       0.006
   0.11011720  0.09536429  0.08991032       0.006
   0.14682293  0.09536429  0.08991032       0.006
   0.18352866  0.09536429  0.08991032       0.006
   0.00000000 -0.02119206  0.02997011       0.002
   0.03670573 -0.02119206  0.02997011       0.003
   0.07341146 -0.02119206  0.02997011       0.003
   0.11011720 -0.02119206  0.02997011       0.003
   0.14682293 -0.02119206  0.02997011       0.003
   0.18352866 -0.02119206  0.02997011       0.003
   0.00000000  0.00000000  0.04495516       0.003
   0.03670573  0.00000000  0.04495516       0.006
   0.07341146  0.00000000  0.04495516       0.006
   0.11011720  0.00000000  0.04495516       0.006
   0.14682293  0.00000000  0.04495516       0.006
   0.18352866  0.00000000  0.04495516       0.006
   0.00000000  0.02119206  0.05994021       0.003
   0.03670573  0.02119207  0.05994021       0.006
   0.07341146  0.02119207  0.05994021       0.006
   0.11011720  0.02119207  0.05994021       0.006
   0.14682293  0.02119207  0.05994021       0.006
   0.18352866  0.02119207  0.05994021       0.006
   0.00000000  0.04238413  0.07492526       0.003
   0.03670573  0.04238413  0.07492527       0.006
   0.07341146  0.04238413  0.07492527       0.006
   0.11011720  0.04238413  0.07492527       0.006
   0.14682293  0.04238413  0.07492527       0.006
   0.18352866  0.04238413  0.07492527       0.006
   0.00000000  0.06357619  0.08991032       0.003
   0.03670573  0.06357619  0.08991032       0.006
   0.07341146  0.06357620  0.08991032       0.006
   0.11011720  0.06357620  0.08991032       0.006
   0.14682293  0.06357620  0.08991032       0.006
   0.18352866  0.06357620  0.08991032       0.006
   0.00000000  0.08476826  0.10489537       0.003
   0.03670573  0.08476826  0.10489537       0.006
   0.07341146  0.08476826  0.10489537       0.006
   0.11011720  0.08476826  0.10489537       0.006
   0.14682293  0.08476826  0.10489537       0.006
   0.18352866  0.08476826  0.10489537       0.006
   0.00000000 -0.03178810  0.04495516       0.002
   0.03670573 -0.03178810  0.04495516       0.003
   0.07341146 -0.03178810  0.04495516       0.003
   0.11011720 -0.03178809  0.04495516       0.003
   0.14682293 -0.03178809  0.04495516       0.003
   0.18352866 -0.03178809  0.04495516       0.003
   0.00000000 -0.01059603  0.05994021       0.003
   0.03670573 -0.01059603  0.05994021       0.006
   0.07341146 -0.01059603  0.05994021       0.006
   0.11011720 -0.01059603  0.05994021       0.006
   0.14682293 -0.01059603  0.05994021       0.006
   0.18352866 -0.01059603  0.05994021       0.006
   0.00000000  0.01059603  0.07492526       0.003
   0.03670573  0.01059603  0.07492527       0.006
   0.07341146  0.01059603  0.07492527       0.006
   0.11011720  0.01059603  0.07492527       0.006
   0.14682293  0.01059604  0.07492527       0.006
   0.18352866  0.01059604  0.07492527       0.006
   0.00000000  0.03178810  0.08991032       0.003
   0.03670573  0.03178810  0.08991032       0.006
   0.07341146  0.03178810  0.08991032       0.006
   0.11011720  0.03178810  0.08991032       0.006
   0.14682293  0.03178810  0.08991032       0.006
   0.18352866  0.03178810  0.08991032       0.006
   0.00000000  0.05298016  0.10489537       0.003
   0.03670573  0.05298016  0.10489537       0.006
   0.07341146  0.05298016  0.10489537       0.006
   0.11011720  0.05298016  0.10489537       0.006
   0.14682293  0.05298016  0.10489537       0.006
   0.18352866  0.05298017  0.10489537       0.006
   0.00000000  0.07417223  0.11988042       0.003
   0.03670573  0.07417223  0.11988042       0.006
   0.07341146  0.07417223  0.11988042       0.006
   0.11011720  0.07417223  0.11988043       0.006
   0.14682293  0.07417223  0.11988043       0.006
   0.18352866  0.07417223  0.11988043       0.006
   0.00000000 -0.04238413  0.05994021       0.002
   0.03670573 -0.04238413  0.05994021       0.003
   0.07341146 -0.04238413  0.05994021       0.003
   0.11011720 -0.04238413  0.05994021       0.003
   0.14682293 -0.04238413  0.05994021       0.003
   0.18352866 -0.04238412  0.05994021       0.003
   0.00000000 -0.02119206  0.07492526       0.003
   0.03670573 -0.02119206  0.07492527       0.006
   0.07341146 -0.02119206  0.07492527       0.006
   0.11011720 -0.02119206  0.07492527       0.006
   0.14682293 -0.02119206  0.07492527       0.006
   0.18352866 -0.02119206  0.07492527       0.006
   0.00000000  0.00000000  0.08991032       0.003
   0.03670573  0.00000000  0.08991032       0.006
   0.07341146  0.00000000  0.08991032       0.006
   0.11011720  0.00000000  0.08991032       0.006
   0.14682293  0.00000000  0.08991032       0.006
   0.18352866  0.00000000  0.08991032       0.006
   0.00000000  0.02119206  0.10489537       0.003
   0.03670573  0.02119207  0.10489537       0.006
   0.07341146  0.02119207  0.10489537       0.006
   0.11011720  0.02119207  0.10489537       0.006
   0.14682293  0.02119207  0.10489537       0.006
   0.18352866  0.02119207  0.10489537       0.006
   0.00000000  0.04238413  0.11988042       0.003
   0.03670573  0.04238413  0.11988042       0.006
   0.07341146  0.04238413  0.11988042       0.006
   0.11011720  0.04238413  0.11988043       0.006
   0.14682293  0.04238413  0.11988043       0.006
   0.18352866  0.04238413  0.11988043       0.006
   0.00000000  0.06357619  0.13486548       0.003
   0.03670573  0.06357619  0.13486548       0.006
   0.07341146  0.06357620  0.13486548       0.006
   0.11011720  0.06357620  0.13486548       0.006
   0.14682293  0.06357620  0.13486548       0.006
   0.18352866  0.06357620  0.13486548       0.006
   0.00000000 -0.05298016  0.07492526       0.002
   0.03670573 -0.05298016  0.07492527       0.003
   0.07341146 -0.05298016  0.07492527       0.003
   0.11011720 -0.05298016  0.07492527       0.003
   0.14682293 -0.05298016  0.07492527       0.003
   0.18352866 -0.05298016  0.07492527       0.003
   0.00000000 -0.03178810  0.08991032       0.003
   0.03670573 -0.03178810  0.08991032       0.006
   0.07341146 -0.03178810  0.08991032       0.006
   0.11011720 -0.03178809  0.08991032       0.006
   0.14682293 -0.03178809  0.08991032       0.006
   0.18352866 -0.03178809  0.08991032       0.006
   0.00000000 -0.01059603  0.10489537       0.003
   0.03670573 -0.01059603  0.10489537       0.006
   0.07341146 -0.01059603  0.10489537       0.006
   0.11011720 -0.01059603  0.10489537       0.006
   0.14682293 -0.01059603  0.10489537       0.006
   0.18352866 -0.01059603  0.10489537       0.006
   0.00000000  0.01059603  0.11988042       0.003
   0.03670573  0.01059603  0.11988042       0.006
   0.07341146  0.01059603  0.11988042       0.006
   0.11011720  0.01059603  0.11988043       0.006
   0.14682293  0.01059604  0.11988043       0.006
   0.18352866  0.01059604  0.11988043       0.006
   0.00000000  0.03178810  0.13486548       0.003
   0.03670573  0.03178810  0.13486548       0.006
   0.07341146  0.03178810  0.13486548       0.006
   0.11011720  0.03178810  0.13486548       0.006
   0.14682293  0.03178810  0.13486548       0.006
   0.18352866  0.03178810  0.13486548       0.006
   0.00000000  0.05298016  0.14985053       0.003
   0.03670573  0.05298016  0.14985053       0.006
   0.07341146  0.05298016  0.14985053       0.006
   0.11011720  0.05298016  0.14985053       0.006
   0.14682293  0.05298016  0.14985053       0.006
   0.18352866  0.05298017  0.14985053       0.006
 
 k-points in reciprocal lattice and weights: k-points                                
   0.00000000  0.00000000  0.00000000       0.001
   0.09090909 -0.00000000  0.00000000       0.002
   0.18181818 -0.00000000  0.00000000       0.002
   0.27272727  0.00000000 -0.00000000       0.002
   0.36363636 -0.00000000  0.00000000       0.002
   0.45454545  0.00000000  0.00000000       0.002
   0.00000000  0.09090909  0.00000000       0.002
   0.09090909  0.09090909  0.00000000       0.003
   0.18181818  0.09090909  0.00000000       0.003
   0.27272727  0.09090909 -0.00000000       0.003
   0.36363636  0.09090909 -0.00000000       0.003
   0.45454545  0.09090909 -0.00000000       0.003
   0.00000000  0.18181818  0.00000000       0.002
   0.09090909  0.18181818  0.00000000       0.003
   0.18181818  0.18181818  0.00000000       0.003
   0.27272727  0.18181818  0.00000000       0.003
   0.36363636  0.18181818  0.00000000       0.003
   0.45454545  0.18181818  0.00000000       0.003
   0.00000000  0.27272727  0.00000000       0.002
   0.09090909  0.27272727  0.00000000       0.003
   0.18181818  0.27272727  0.00000000       0.003
   0.27272727  0.27272727  0.00000000       0.003
   0.36363636  0.27272727  0.00000000       0.003
   0.45454545  0.27272727  0.00000000       0.003
   0.00000000  0.36363636  0.00000000       0.002
   0.09090909  0.36363636  0.00000000       0.003
   0.18181818  0.36363636  0.00000000       0.003
   0.27272727  0.36363636 -0.00000000       0.003
   0.36363636  0.36363636  0.00000000       0.003
   0.45454545  0.36363636  0.00000000       0.003
   0.00000000  0.45454545 -0.00000000       0.002
   0.09090909  0.45454545 -0.00000000       0.003
   0.18181818  0.45454545  0.00000000       0.003
   0.27272727  0.45454545 -0.00000000       0.003
   0.36363636  0.45454545 -0.00000000       0.003
   0.45454545  0.45454545 -0.00000000       0.003
   0.00000000 -0.00000000  0.09090909       0.002
   0.09090909 -0.00000000  0.09090909       0.003
   0.18181818 -0.00000000  0.09090909       0.003
   0.27272727 -0.00000000  0.09090909       0.003
   0.36363636  0.00000000  0.09090909       0.003
   0.45454545  0.00000000  0.09090909       0.003
   0.00000000  0.09090909  0.09090909       0.003
   0.09090909  0.09090909  0.09090909       0.006
   0.18181818  0.09090909  0.09090909       0.006
   0.27272727  0.09090909  0.09090909       0.006
   0.36363636  0.09090909  0.09090909       0.006
   0.45454545  0.09090909  0.09090909       0.006
   0.00000000  0.18181818  0.09090909       0.003
   0.09090909  0.18181818  0.09090909       0.006
   0.18181818  0.18181818  0.09090909       0.006
   0.27272727  0.18181818  0.09090909       0.006
   0.36363636  0.18181818  0.09090909       0.006
   0.45454545  0.18181818  0.09090909       0.006
   0.00000000  0.27272727  0.09090909       0.003
   0.09090909  0.27272727  0.09090909       0.006
   0.18181818  0.27272727  0.09090909       0.006
   0.27272727  0.27272727  0.09090909       0.006
   0.36363636  0.27272727  0.09090909       0.006
   0.45454545  0.27272727  0.09090909       0.006
   0.00000000  0.36363636  0.09090909       0.003
   0.09090909  0.36363636  0.09090909       0.006
   0.18181818  0.36363636  0.09090909       0.006
   0.27272727  0.36363636  0.09090909       0.006
   0.36363636  0.36363636  0.09090909       0.006
   0.45454545  0.36363636  0.09090909       0.006
   0.00000000  0.45454545  0.09090909       0.003
   0.09090909  0.45454545  0.09090909       0.006
   0.18181818  0.45454545  0.09090909       0.006
   0.27272727  0.45454545  0.09090909       0.006
   0.36363636  0.45454545  0.09090909       0.006
   0.45454545  0.45454545  0.09090909       0.006
   0.00000000 -0.00000000  0.18181818       0.002
   0.09090909 -0.00000000  0.18181818       0.003
   0.18181818 -0.00000000  0.18181818       0.003
   0.27272727 -0.00000000  0.18181818       0.003
   0.36363636 -0.00000000  0.18181818       0.003
   0.45454545  0.00000000  0.18181818       0.003
   0.00000000  0.09090909  0.18181818       0.003
   0.09090909  0.09090909  0.18181818       0.006
   0.18181818  0.09090909  0.18181818       0.006
   0.27272727  0.09090909  0.18181818       0.006
   0.36363636  0.09090909  0.18181818       0.006
   0.45454545  0.09090909  0.18181818       0.006
   0.00000000  0.18181818  0.18181818       0.003
   0.09090909  0.18181818  0.18181818       0.006
   0.18181818  0.18181818  0.18181818       0.006
   0.27272727  0.18181818  0.18181818       0.006
   0.36363636  0.18181818  0.18181818       0.006
   0.45454545  0.18181818  0.18181818       0.006
   0.00000000  0.27272727  0.18181818       0.003
   0.09090909  0.27272727  0.18181818       0.006
   0.18181818  0.27272727  0.18181818       0.006
   0.27272727  0.27272727  0.18181818       0.006
   0.36363636  0.27272727  0.18181818       0.006
   0.45454545  0.27272727  0.18181818       0.006
   0.00000000  0.36363636  0.18181818       0.003
   0.09090909  0.36363636  0.18181818       0.006
   0.18181818  0.36363636  0.18181818       0.006
   0.27272727  0.36363636  0.18181818       0.006
   0.36363636  0.36363636  0.18181818       0.006
   0.45454545  0.36363636  0.18181818       0.006
   0.00000000  0.45454545  0.18181818       0.003
   0.09090909  0.45454545  0.18181818       0.006
   0.18181818  0.45454545  0.18181818       0.006
   0.27272727  0.45454545  0.18181818       0.006
   0.36363636  0.45454545  0.18181818       0.006
   0.45454545  0.45454545  0.18181818       0.006
   0.00000000  0.00000000  0.27272727       0.002
   0.09090909 -0.00000000  0.27272727       0.003
   0.18181818 -0.00000000  0.27272727       0.003
   0.27272727 -0.00000000  0.27272727       0.003
   0.36363636  0.00000000  0.27272727       0.003
   0.45454545  0.00000000  0.27272727       0.003
   0.00000000  0.09090909  0.27272727       0.003
   0.09090909  0.09090909  0.27272727       0.006
   0.18181818  0.09090909  0.27272727       0.006
   0.27272727  0.09090909  0.27272727       0.006
   0.36363636  0.09090909  0.27272727       0.006
   0.45454545  0.09090909  0.27272727       0.006
   0.00000000  0.18181818  0.27272727       0.003
   0.09090909  0.18181818  0.27272727       0.006
   0.18181818  0.18181818  0.27272727       0.006
   0.27272727  0.18181818  0.27272727       0.006
   0.36363636  0.18181818  0.27272727       0.006
   0.45454545  0.18181818  0.27272727       0.006
   0.00000000  0.27272727  0.27272727       0.003
   0.09090909  0.27272727  0.27272727       0.006
   0.18181818  0.27272727  0.27272727       0.006
   0.27272727  0.27272727  0.27272727       0.006
   0.36363636  0.27272727  0.27272727       0.006
   0.45454545  0.27272727  0.27272727       0.006
   0.00000000  0.36363636  0.27272727       0.003
   0.09090909  0.36363636  0.27272727       0.006
   0.18181818  0.36363636  0.27272727       0.006
   0.27272727  0.36363636  0.27272727       0.006
   0.36363636  0.36363636  0.27272727       0.006
   0.45454545  0.36363636  0.27272727       0.006
   0.00000000  0.45454545  0.27272727       0.003
   0.09090909  0.45454545  0.27272727       0.006
   0.18181818  0.45454545  0.27272727       0.006
   0.27272727  0.45454545  0.27272727       0.006
   0.36363636  0.45454545  0.27272727       0.006
   0.45454545  0.45454545  0.27272727       0.006
   0.00000000 -0.00000000  0.36363636       0.002
   0.09090909 -0.00000000  0.36363636       0.003
   0.18181818 -0.00000000  0.36363636       0.003
   0.27272727 -0.00000000  0.36363636       0.003
   0.36363636 -0.00000000  0.36363636       0.003
   0.45454545 -0.00000000  0.36363636       0.003
   0.00000000  0.09090909  0.36363636       0.003
   0.09090909  0.09090909  0.36363636       0.006
   0.18181818  0.09090909  0.36363636       0.006
   0.27272727  0.09090909  0.36363636       0.006
   0.36363636  0.09090909  0.36363636       0.006
   0.45454545  0.09090909  0.36363636       0.006
   0.00000000  0.18181818  0.36363636       0.003
   0.09090909  0.18181818  0.36363636       0.006
   0.18181818  0.18181818  0.36363636       0.006
   0.27272727  0.18181818  0.36363636       0.006
   0.36363636  0.18181818  0.36363636       0.006
   0.45454545  0.18181818  0.36363636       0.006
   0.00000000  0.27272727  0.36363636       0.003
   0.09090909  0.27272727  0.36363636       0.006
   0.18181818  0.27272727  0.36363636       0.006
   0.27272727  0.27272727  0.36363636       0.006
   0.36363636  0.27272727  0.36363636       0.006
   0.45454545  0.27272727  0.36363636       0.006
   0.00000000  0.36363636  0.36363636       0.003
   0.09090909  0.36363636  0.36363636       0.006
   0.18181818  0.36363636  0.36363636       0.006
   0.27272727  0.36363636  0.36363636       0.006
   0.36363636  0.36363636  0.36363636       0.006
   0.45454545  0.36363636  0.36363636       0.006
   0.00000000  0.45454545  0.36363636       0.003
   0.09090909  0.45454545  0.36363636       0.006
   0.18181818  0.45454545  0.36363636       0.006
   0.27272727  0.45454545  0.36363636       0.006
   0.36363636  0.45454545  0.36363636       0.006
   0.45454545  0.45454545  0.36363636       0.006
   0.00000000 -0.00000000  0.45454545       0.002
   0.09090909 -0.00000000  0.45454545       0.003
   0.18181818 -0.00000000  0.45454545       0.003
   0.27272727 -0.00000000  0.45454545       0.003
   0.36363636 -0.00000000  0.45454545       0.003
   0.45454545  0.00000000  0.45454545       0.003
   0.00000000  0.09090909  0.45454545       0.003
   0.09090909  0.09090909  0.45454545       0.006
   0.18181818  0.09090909  0.45454545       0.006
   0.27272727  0.09090909  0.45454545       0.006
   0.36363636  0.09090909  0.45454545       0.006
   0.45454545  0.09090909  0.45454545       0.006
   0.00000000  0.18181818  0.45454545       0.003
   0.09090909  0.18181818  0.45454545       0.006
   0.18181818  0.18181818  0.45454545       0.006
   0.27272727  0.18181818  0.45454545       0.006
   0.36363636  0.18181818  0.45454545       0.006
   0.45454545  0.18181818  0.45454545       0.006
   0.00000000  0.27272727  0.45454545       0.003
   0.09090909  0.27272727  0.45454545       0.006
   0.18181818  0.27272727  0.45454545       0.006
   0.27272727  0.27272727  0.45454545       0.006
   0.36363636  0.27272727  0.45454545       0.006
   0.45454545  0.27272727  0.45454545       0.006
   0.00000000  0.36363636  0.45454545       0.003
   0.09090909  0.36363636  0.45454545       0.006
   0.18181818  0.36363636  0.45454545       0.006
   0.27272727  0.36363636  0.45454545       0.006
   0.36363636  0.36363636  0.45454545       0.006
   0.45454545  0.36363636  0.45454545       0.006
   0.00000000  0.45454545  0.45454545       0.003
   0.09090909  0.45454545  0.45454545       0.006
   0.18181818  0.45454545  0.45454545       0.006
   0.27272727  0.45454545  0.45454545       0.006
   0.36363636  0.45454545  0.45454545       0.006
   0.45454545  0.45454545  0.45454545       0.006
 
 position of ions in fractional coordinates (direct lattice) 
   0.00000000  0.00000000  0.00000000
   0.50000000  0.50000000  0.25000000
   0.00000000  0.00000000  0.50000000
   0.50000000  0.50000000  0.75000000
 
 position of ions in cartesian coordinates  (Angst):
   0.00000000  0.00000000  0.00000000
   1.23835000  0.71496173  2.02221710
   0.00000000 -1.42992347  2.02221710
   1.23835000 -0.71496174  4.04443420
 


--------------------------------------------------------------------------------------------------------


 k-point  1 :   0.0000 0.0000 0.0000  plane waves:    1151
 k-point  2 :   0.0909-0.0000 0.0000  plane waves:    1151
 k-point  3 :   0.1818-0.0000 0.0000  plane waves:    1151
 k-point  4 :   0.2727 0.0000-0.0000  plane waves:    1161
 k-point  5 :   0.3636-0.0000 0.0000  plane waves:    1161
 k-point  6 :   0.4545 0.0000 0.0000  plane waves:    1174
 k-point  7 :   0.0000 0.0909 0.0000  plane waves:    1155
 k-point  8 :   0.0909 0.0909 0.0000  plane waves:    1164
 k-point  9 :   0.1818 0.0909 0.0000  plane waves:    1162
 k-point 10 :   0.2727 0.0909-0.0000  plane waves:    1160
 k-point 11 :   0.3636 0.0909-0.0000  plane waves:    1162
 k-point 12 :   0.4545 0.0909-0.0000  plane waves:    1165
 k-point 13 :   0.0000 0.1818 0.0000  plane waves:    1161
 k-point 14 :   0.0909 0.1818 0.0000  plane waves:    1163
 k-point 15 :   0.1818 0.1818 0.0000  plane waves:    1165
 k-point 16 :   0.2727 0.1818 0.0000  plane waves:    1167
 k-point 17 :   0.3636 0.1818 0.0000  plane waves:    1160
 k-point 18 :   0.4545 0.1818 0.0000  plane waves:    1152
 k-point 19 :   0.0000 0.2727 0.0000  plane waves:    1159
 k-point 20 :   0.0909 0.2727 0.0000  plane waves:    1166
 k-point 21 :   0.1818 0.2727 0.0000  plane waves:    1164
 k-point 22 :   0.2727 0.2727 0.0000  plane waves:    1165
 k-point 23 :   0.3636 0.2727 0.0000  plane waves:    1155
 k-point 24 :   0.4545 0.2727 0.0000  plane waves:    1150
 k-point 25 :   0.0000 0.3636 0.0000  plane waves:    1159
 k-point 26 :   0.0909 0.3636 0.0000  plane waves:    1157
 k-point 27 :   0.1818 0.3636 0.0000  plane waves:    1158
 k-point 28 :   0.2727 0.3636-0.0000  plane waves:    1154
 k-point 29 :   0.3636 0.3636 0.0000  plane waves:    1148
 k-point 30 :   0.4545 0.3636 0.0000  plane waves:    1146
 k-point 31 :   0.0000 0.4545-0.0000  plane waves:    1157
 k-point 32 :   0.0909 0.4545-0.0000  plane waves:    1161
 k-point 33 :   0.1818 0.4545 0.0000  plane waves:    1163
 k-point 34 :   0.2727 0.4545-0.0000  plane waves:    1157
 k-point 35 :   0.3636 0.4545-0.0000  plane waves:    1133
 k-point 36 :   0.4545 0.4545-0.0000  plane waves:    1131
 k-point 37 :   0.0000-0.0000 0.0909  plane waves:    1163
 k-point 38 :   0.0909-0.0000 0.0909  plane waves:    1159
 k-point 39 :   0.1818-0.0000 0.0909  plane waves:    1160
 k-point 40 :   0.2727-0.0000 0.0909  plane waves:    1158
 k-point 41 :   0.3636 0.0000 0.0909  plane waves:    1154
 k-point 42 :   0.4545 0.0000 0.0909  plane waves:    1167
 k-point 43 :   0.0000 0.0909 0.0909  plane waves:    1161
 k-point 44 :   0.0909 0.0909 0.0909  plane waves:    1161
 k-point 45 :   0.1818 0.0909 0.0909  plane waves:    1164
 k-point 46 :   0.2727 0.0909 0.0909  plane waves:    1161
 k-point 47 :   0.3636 0.0909 0.0909  plane waves:    1154
 k-point 48 :   0.4545 0.0909 0.0909  plane waves:    1159
 k-point 49 :   0.0000 0.1818 0.0909  plane waves:    1162
 k-point 50 :   0.0909 0.1818 0.0909  plane waves:    1160
 k-point 51 :   0.1818 0.1818 0.0909  plane waves:    1155
 k-point 52 :   0.2727 0.1818 0.0909  plane waves:    1165
 k-point 53 :   0.3636 0.1818 0.0909  plane waves:    1156
 k-point 54 :   0.4545 0.1818 0.0909  plane waves:    1151
 k-point 55 :   0.0000 0.2727 0.0909  plane waves:    1166
 k-point 56 :   0.0909 0.2727 0.0909  plane waves:    1163
 k-point 57 :   0.1818 0.2727 0.0909  plane waves:    1156
 k-point 58 :   0.2727 0.2727 0.0909  plane waves:    1163
 k-point 59 :   0.3636 0.2727 0.0909  plane waves:    1158
 k-point 60 :   0.4545 0.2727 0.0909  plane waves:    1151
 k-point 61 :   0.0000 0.3636 0.0909  plane waves:    1170
 k-point 62 :   0.0909 0.3636 0.0909  plane waves:    1160
 k-point 63 :   0.1818 0.3636 0.0909  plane waves:    1158
 k-point 64 :   0.2727 0.3636 0.0909  plane waves:    1152
 k-point 65 :   0.3636 0.3636 0.0909  plane waves:    1148
 k-point 66 :   0.4545 0.3636 0.0909  plane waves:    1142
 k-point 67 :   0.0000 0.4545 0.0909  plane waves:    1158
 k-point 68 :   0.0909 0.4545 0.0909  plane waves:    1166
 k-point 69 :   0.1818 0.4545 0.0909  plane waves:    1161
 k-point 70 :   0.2727 0.4545 0.0909  plane waves:    1156
 k-point 71 :   0.3636 0.4545 0.0909  plane waves:    1138
 k-point 72 :   0.4545 0.4545 0.0909  plane waves:    1137
 k-point 73 :   0.0000-0.0000 0.1818  plane waves:    1157
 k-point 74 :   0.0909-0.0000 0.1818  plane waves:    1164
 k-point 75 :   0.1818-0.0000 0.1818  plane waves:    1158
 k-point 76 :   0.2727-0.0000 0.1818  plane waves:    1160
 k-point 77 :   0.3636-0.0000 0.1818  plane waves:    1149
 k-point 78 :   0.4545 0.0000 0.1818  plane waves:    1160
 k-point 79 :   0.0000 0.0909 0.1818  plane waves:    1167
 k-point 80 :   0.0909 0.0909 0.1818  plane waves:    1162
 k-point 81 :   0.1818 0.0909 0.1818  plane waves:    1163
 k-point 82 :   0.2727 0.0909 0.1818  plane waves:    1161
 k-point 83 :   0.3636 0.0909 0.1818  plane waves:    1146
 k-point 84 :   0.4545 0.0909 0.1818  plane waves:    1157
 k-point 85 :   0.0000 0.1818 0.1818  plane waves:    1168
 k-point 86 :   0.0909 0.1818 0.1818  plane waves:    1161
 k-point 87 :   0.1818 0.1818 0.1818  plane waves:    1161
 k-point 88 :   0.2727 0.1818 0.1818  plane waves:    1164
 k-point 89 :   0.3636 0.1818 0.1818  plane waves:    1157
 k-point 90 :   0.4545 0.1818 0.1818  plane waves:    1146
 k-point 91 :   0.0000 0.2727 0.1818  plane waves:    1170
 k-point 92 :   0.0909 0.2727 0.1818  plane waves:    1163
 k-point 93 :   0.1818 0.2727 0.1818  plane waves:    1159
 k-point 94 :   0.2727 0.2727 0.1818  plane waves:    1159
 k-point 95 :   0.3636 0.2727 0.1818  plane waves:    1158
 k-point 96 :   0.4545 0.2727 0.1818  plane waves:    1149
 k-point 97 :   0.0000 0.3636 0.1818  plane waves:    1159
 k-point 98 :   0.0909 0.3636 0.1818  plane waves:    1164
 k-point 99 :   0.1818 0.3636 0.1818  plane waves:    1163
 k-point ** :   0.2727 0.3636 0.1818  plane waves:    1156
 k-point ** :   0.3636 0.3636 0.1818  plane waves:    1148
 k-point ** :   0.4545 0.3636 0.1818  plane waves:    1142
 k-point ** :   0.0000 0.4545 0.1818  plane waves:    1160
 k-point ** :   0.0909 0.4545 0.1818  plane waves:    1158
 k-point ** :   0.1818 0.4545 0.1818  plane waves:    1154
 k-point ** :   0.2727 0.4545 0.1818  plane waves:    1146
 k-point ** :   0.3636 0.4545 0.1818  plane waves:    1142
 k-point ** :   0.4545 0.4545 0.1818  plane waves:    1138
 k-point ** :   0.0000 0.0000 0.2727  plane waves:    1160
 k-point ** :   0.0909-0.0000 0.2727  plane waves:    1155
 k-point ** :   0.1818-0.0000 0.2727  plane waves:    1161
 k-point ** :   0.2727-0.0000 0.2727  plane waves:    1167
 k-point ** :   0.3636 0.0000 0.2727  plane waves:    1158
 k-point ** :   0.4545 0.0000 0.2727  plane waves:    1152
 k-point ** :   0.0000 0.0909 0.2727  plane waves:    1166
 k-point ** :   0.0909 0.0909 0.2727  plane waves:    1157
 k-point ** :   0.1818 0.0909 0.2727  plane waves:    1162
 k-point ** :   0.2727 0.0909 0.2727  plane waves:    1161
 k-point ** :   0.3636 0.0909 0.2727  plane waves:    1155
 k-point ** :   0.4545 0.0909 0.2727  plane waves:    1154
 k-point ** :   0.0000 0.1818 0.2727  plane waves:    1170
 k-point ** :   0.0909 0.1818 0.2727  plane waves:    1163
 k-point ** :   0.1818 0.1818 0.2727  plane waves:    1161
 k-point ** :   0.2727 0.1818 0.2727  plane waves:    1158
 k-point ** :   0.3636 0.1818 0.2727  plane waves:    1154
 k-point ** :   0.4545 0.1818 0.2727  plane waves:    1154
 k-point ** :   0.0000 0.2727 0.2727  plane waves:    1165
 k-point ** :   0.0909 0.2727 0.2727  plane waves:    1170
 k-point ** :   0.1818 0.2727 0.2727  plane waves:    1158
 k-point ** :   0.2727 0.2727 0.2727  plane waves:    1157
 k-point ** :   0.3636 0.2727 0.2727  plane waves:    1152
 k-point ** :   0.4545 0.2727 0.2727  plane waves:    1154
 k-point ** :   0.0000 0.3636 0.2727  plane waves:    1161
 k-point ** :   0.0909 0.3636 0.2727  plane waves:    1163
 k-point ** :   0.1818 0.3636 0.2727  plane waves:    1156
 k-point ** :   0.2727 0.3636 0.2727  plane waves:    1158
 k-point ** :   0.3636 0.3636 0.2727  plane waves:    1149
 k-point ** :   0.4545 0.3636 0.2727  plane waves:    1150
 k-point ** :   0.0000 0.4545 0.2727  plane waves:    1157
 k-point ** :   0.0909 0.4545 0.2727  plane waves:    1160
 k-point ** :   0.1818 0.4545 0.2727  plane waves:    1157
 k-point ** :   0.2727 0.4545 0.2727  plane waves:    1152
 k-point ** :   0.3636 0.4545 0.2727  plane waves:    1139
 k-point ** :   0.4545 0.4545 0.2727  plane waves:    1141
 k-point ** :   0.0000-0.0000 0.3636  plane waves:    1154
 k-point ** :   0.0909-0.0000 0.3636  plane waves:    1157
 k-point ** :   0.1818-0.0000 0.3636  plane waves:    1161
 k-point ** :   0.2727-0.0000 0.3636  plane waves:    1165
 k-point ** :   0.3636-0.0000 0.3636  plane waves:    1164
 k-point ** :   0.4545-0.0000 0.3636  plane waves:    1161
 k-point ** :   0.0000 0.0909 0.3636  plane waves:    1161
 k-point ** :   0.0909 0.0909 0.3636  plane waves:    1163
 k-point ** :   0.1818 0.0909 0.3636  plane waves:    1164
 k-point ** :   0.2727 0.0909 0.3636  plane waves:    1163
 k-point ** :   0.3636 0.0909 0.3636  plane waves:    1160
 k-point ** :   0.4545 0.0909 0.3636  plane waves:    1160
 k-point ** :   0.0000 0.1818 0.3636  plane waves:    1164
 k-point ** :   0.0909 0.1818 0.3636  plane waves:    1166
 k-point ** :   0.1818 0.1818 0.3636  plane waves:    1161
 k-point ** :   0.2727 0.1818 0.3636  plane waves:    1158
 k-point ** :   0.3636 0.1818 0.3636  plane waves:    1158
 k-point ** :   0.4545 0.1818 0.3636  plane waves:    1153
 k-point ** :   0.0000 0.2727 0.3636  plane waves:    1167
 k-point ** :   0.0909 0.2727 0.3636  plane waves:    1168
 k-point ** :   0.1818 0.2727 0.3636  plane waves:    1159
 k-point ** :   0.2727 0.2727 0.3636  plane waves:    1148
 k-point ** :   0.3636 0.2727 0.3636  plane waves:    1150
 k-point ** :   0.4545 0.2727 0.3636  plane waves:    1146
 k-point ** :   0.0000 0.3636 0.3636  plane waves:    1156
 k-point ** :   0.0909 0.3636 0.3636  plane waves:    1165
 k-point ** :   0.1818 0.3636 0.3636  plane waves:    1160
 k-point ** :   0.2727 0.3636 0.3636  plane waves:    1154
 k-point ** :   0.3636 0.3636 0.3636  plane waves:    1143
 k-point ** :   0.4545 0.3636 0.3636  plane waves:    1149
 k-point ** :   0.0000 0.4545 0.3636  plane waves:    1165
 k-point ** :   0.0909 0.4545 0.3636  plane waves:    1155
 k-point ** :   0.1818 0.4545 0.3636  plane waves:    1161
 k-point ** :   0.2727 0.4545 0.3636  plane waves:    1151
 k-point ** :   0.3636 0.4545 0.3636  plane waves:    1144
 k-point ** :   0.4545 0.4545 0.3636  plane waves:    1151
 k-point ** :   0.0000-0.0000 0.4545  plane waves:    1166
 k-point ** :   0.0909-0.0000 0.4545  plane waves:    1162
 k-point ** :   0.1818-0.0000 0.4545  plane waves:    1169
 k-point ** :   0.2727-0.0000 0.4545  plane waves:    1156
 k-point ** :   0.3636-0.0000 0.4545  plane waves:    1164
 k-point ** :   0.4545 0.0000 0.4545  plane waves:    1161
 k-point ** :   0.0000 0.0909 0.4545  plane waves:    1158
 k-point ** :   0.0909 0.0909 0.4545  plane waves:    1160
 k-point ** :   0.1818 0.0909 0.4545  plane waves:    1162
 k-point ** :   0.2727 0.0909 0.4545  plane waves:    1160
 k-point ** :   0.3636 0.0909 0.4545  plane waves:    1162
 k-point ** :   0.4545 0.0909 0.4545  plane waves:    1167
 k-point ** :   0.0000 0.1818 0.4545  plane waves:    1167
 k-point ** :   0.0909 0.1818 0.4545  plane waves:    1165
 k-point ** :   0.1818 0.1818 0.4545  plane waves:    1160
 k-point ** :   0.2727 0.1818 0.4545  plane waves:    1155
 k-point ** :   0.3636 0.1818 0.4545  plane waves:    1154
 k-point ** :   0.4545 0.1818 0.4545  plane waves:    1156
 k-point ** :   0.0000 0.2727 0.4545  plane waves:    1167
 k-point ** :   0.0909 0.2727 0.4545  plane waves:    1165
 k-point ** :   0.1818 0.2727 0.4545  plane waves:    1152
 k-point ** :   0.2727 0.2727 0.4545  plane waves:    1144
 k-point ** :   0.3636 0.2727 0.4545  plane waves:    1145
 k-point ** :   0.4545 0.2727 0.4545  plane waves:    1154
 k-point ** :   0.0000 0.3636 0.4545  plane waves:    1159
 k-point ** :   0.0909 0.3636 0.4545  plane waves:    1168
 k-point ** :   0.1818 0.3636 0.4545  plane waves:    1162
 k-point ** :   0.2727 0.3636 0.4545  plane waves:    1152
 k-point ** :   0.3636 0.3636 0.4545  plane waves:    1150
 k-point ** :   0.4545 0.3636 0.4545  plane waves:    1149
 k-point ** :   0.0000 0.4545 0.4545  plane waves:    1166
 k-point ** :   0.0909 0.4545 0.4545  plane waves:    1155
 k-point ** :   0.1818 0.4545 0.4545  plane waves:    1157
 k-point ** :   0.2727 0.4545 0.4545  plane waves:    1150
 k-point ** :   0.3636 0.4545 0.4545  plane waves:    1154
 k-point ** :   0.4545 0.4545 0.4545  plane waves:    1149

 maximum and minimum number of plane-waves per node :      1174     1131

 maximum number of plane-waves:      1174
 maximum index in each direction: 
   IXMAX=    4   IYMAX=    6   IZMAX=    9
   IXMIN=   -5   IYMIN=   -6   IZMIN=   -9


 serial   3D FFT for wavefunctions
 parallel 3D FFT for charge:
    minimum data exchange during FFTs selected (reduces bandwidth)


 total amount of memory used by VASP MPI-rank0    96765. kBytes
=======================================================================

   base      :      30000. kBytes
   nonl-proj :      36653. kBytes
   fftplans  :        837. kBytes
   grid      :       3273. kBytes
   one-center:        124. kBytes
   wavefun   :      25878. kBytes
 
     INWAV:  cpu time    0.0000: real time    0.0001
 Broyden mixing: mesh for mixing (old mesh)
   NGX =  9   NGY = 13   NGZ = 19
  (NGX  = 36   NGY  = 56   NGZ  = 80)
  gives a total of   2223 points

 initial charge density was supplied:
 charge density of overlapping atoms calculated
 number of electron      40.0000000 magnetization       0.0000000
 keeping initial charge density in first step


--------------------------------------------------------------------------------------------------------


 Maximum index for augmentation-charges         2246 (set IRDMAX)


--------------------------------------------------------------------------------------------------------


 First call to EWALD:  gamma=   0.506
 Maximum number of real-space cells 4x 3x 2
 Maximum number of reciprocal cells 2x 3x 4

    FEWALD:  cpu time    0.0013: real time    0.0013


--------------------------------------- Iteration      1(   1)  ---------------------------------------


    POTLOK:  cpu time    0.0324: real time    0.0349
    SETDIJ:  cpu time    0.5557: real time    0.5571
     EDDAV:  cpu time    4.3839: real time    4.4035
       DOS:  cpu time    0.0053: real time    0.0053
    --------------------------------------------
      LOOP:  cpu time    4.9773: real time    5.0008

 eigenvalue-minimisations  : 20960
 total energy-change (2. order) : 0.2510679E+03  (-0.1857254E+04)
 number of electron      40.0000000 magnetization       0.0000000
 augmentation part       40.0000000 magnetization       0.0000000

 Free energy of the ion-electron system (eV)
  ---------------------------------------------------
  alpha Z        PSCENC =       189.89774773
  Ewald energy   TEWEN  =     -3769.84881827
  -Hartree energ DENC   =      -972.41975722
  -exchange      EXHF   =         0.00000000
  -V(xc)+E(xc)   XCENC  =       127.23804510
  PAW double counting   =      3851.33269441    -4118.68284910
  entropy T*S    EENTRO =         0.00062487
  eigenvalues    EBANDS =       632.86658452
  atomic energy  EATOM  =      4310.68367761
  Solvation  Ediel_sol  =         0.00000000
  ---------------------------------------------------
  free energy    TOTEN  =       251.06794966 eV

  energy without entropy =      251.06732479  energy(sigma->0) =      251.06774137


--------------------------------------------------------------------------------------------------------




--------------------------------------- Iteration      1(   2)  ---------------------------------------


     EDDAV:  cpu time    4.5835: real time    4.5951
       DOS:  cpu time    0.0071: real time    0.0071
    --------------------------------------------
      LOOP:  cpu time    4.5907: real time    4.6022

 eigenvalue-minimisations  : 21392
 total energy-change (2. order) :-0.2626604E+03  (-0.2574425E+03)
 number of electron      40.0000000 magnetization       0.0000000
 augmentation part       40.0000000 magnetization       0.0000000

 Free energy of the ion-electron system (eV)
  ---------------------------------------------------
  alpha Z        PSCENC =       189.89774773
  Ewald energy   TEWEN  =     -3769.84881827
  -Hartree energ DENC   =      -972.41975722
  -exchange      EXHF   =         0.00000000
  -V(xc)+E(xc)   XCENC  =       127.23804510
  PAW double counting   =      3851.33269441    -4118.68284910
  entropy T*S    EENTRO =        -0.00150922
  eigenvalues    EBANDS =       370.20828753
  atomic energy  EATOM  =      4310.68367761
  Solvation  Ediel_sol  =         0.00000000
  ---------------------------------------------------
  free energy    TOTEN  =       -11.59248142 eV

  energy without entropy =      -11.59097221  energy(sigma->0) =      -11.59197835


--------------------------------------------------------------------------------------------------------




--------------------------------------- Iteration      1(   3)  ---------------------------------------


     EDDAV:  cpu time    4.4915: real time    4.5022
       DOS:  cpu time    0.0076: real time    0.0076
    --------------------------------------------
      LOOP:  cpu time    4.4991: real time    4.5098

 eigenvalue-minimisations  : 21544
 total energy-change (2. order) :-0.1382791E+02  (-0.1346152E+02)
 number of electron      40.0000000 magnetization       0.0000000
[...]
     10       7.1007      1.00000
     11       7.2580      1.00000
     12       7.3182      1.00000
     13       7.9772      1.00000
     14       8.0663      1.00000
     15       8.0749      1.00000
     16       8.1951      1.00000
     17       8.4199      1.00000
     18       8.5789      1.00000
     19       8.6190      1.00000
     20       8.7391      1.00005
     21       9.9849     -0.00004
     22      10.2039     -0.00000
     23      10.5345     -0.00000
     24      10.8229     -0.00000

 k-point   214 :       0.2727    0.4545    0.4545
  band No.  band energies     occupation 
      1       5.1234      1.00000
      2       5.4037      1.00000
      3       5.5868      1.00000
      4       5.7870      1.00000
      5       6.7378      1.00000
      6       6.7766      1.00000
      7       6.8144      1.00000
      8       6.8286      1.00000
      9       6.8342      1.00000
     10       6.9471      1.00000
     11       7.0151      1.00000
     12       7.1399      1.00000
     13       8.0974      1.00000
     14       8.1422      1.00000
     15       8.1935      1.00000
     16       8.1952      1.00000
     17       8.5535      1.00000
     18       8.6062      1.00000
     19       8.6916      1.00001
     20       8.7217      1.00003
     21      10.5134     -0.00000
     22      10.8511     -0.00000
     23      11.1930     -0.00000
     24      11.5971     -0.00000

 k-point   215 :       0.3636    0.4545    0.4545
  band No.  band energies     occupation 
      1       5.4976      1.00000
      2       5.7202      1.00000
      3       5.7707      1.00000
      4       5.9548      1.00000
      5       6.6161      1.00000
      6       6.6940      1.00000
      7       6.7867      1.00000
      8       6.8562      1.00000
      9       6.9357      1.00000
     10       7.0417      1.00000
     11       7.0905      1.00000
     12       7.1643      1.00000
     13       8.0366      1.00000
     14       8.0416      1.00000
     15       8.2054      1.00000
     16       8.2258      1.00000
     17       8.9451      1.00646
     18       8.9456      1.00651
     19       8.9797      1.01119
     20       8.9863      1.01231
     21      11.1953     -0.00000
     22      11.6934     -0.00000
     23      11.9898     -0.00000
     24      12.5524     -0.00000

 k-point   216 :       0.4545    0.4545    0.4545
  band No.  band energies     occupation 
      1       5.6295      1.00000
      2       5.6903      1.00000
      3       5.8867      1.00000
      4       5.9396      1.00000
      5       6.5010      1.00000
      6       6.5375      1.00000
      7       6.7194      1.00000
      8       6.7511      1.00000
      9       7.1631      1.00000
     10       7.2251      1.00000
     11       7.3388      1.00000
     12       7.3939      1.00000
     13       7.9880      1.00000
     14       7.9927      1.00000
     15       8.1764      1.00000
     16       8.1880      1.00000
     17       9.2374      0.92125
     18       9.2391      0.91731
     19       9.2467      0.89920
     20       9.2496      0.89202
     21      12.1731     -0.00000
     22      12.7129     -0.00000
     23      12.8645     -0.00000
     24      13.5002     -0.00000


--------------------------------------------------------------------------------------------------------


 soft charge-density along one line, spin component           1
         0         1         2         3         4         5         6         7         8         9
 total charge-density along one line
 
 soft charge-density along one line, spin component           2
         0         1         2         3         4         5         6         7         8         9
 total charge-density along one line
 
 pseudopotential strength for first ion, spin component:           1
 -0.135  -0.000   0.000  -0.013   0.000  -0.832  -0.000   0.000
 -0.000  -0.126  -0.000  -0.000  -0.013  -0.000  -0.824  -0.000
  0.000  -0.000  -0.145  -0.000  -0.001   0.000  -0.000  -0.842
 -0.013  -0.000  -0.000  -0.125  -0.000  -0.013  -0.000  -0.000
  0.000  -0.013  -0.001  -0.000  -0.134   0.000  -0.013  -0.001
 -0.832  -0.000   0.000  -0.013   0.000  -1.458  -0.000   0.000
 -0.000  -0.824  -0.000  -0.000  -0.013  -0.000  -1.450  -0.000
  0.000  -0.000  -0.842  -0.000  -0.001   0.000  -0.000  -1.467
 -0.013  -0.000  -0.000  -0.823  -0.000  -0.013  -0.000  -0.000
  0.000  -0.013  -0.001  -0.000  -0.832   0.000  -0.013  -0.001
  0.000  -0.000   0.000   0.000  -0.000   0.000  -0.000   0.000
  0.000  -0.000   0.000   0.000  -0.000   0.000  -0.000   0.000
  0.000   0.000   0.000  -0.000   0.000   0.000   0.000   0.000
 -0.000  -0.000   0.000  -0.000  -0.000  -0.000  -0.000   0.000
 -0.000  -0.000   0.000   0.000  -0.000  -0.000  -0.000  -0.000
 -0.000   0.000   0.000   0.000   0.000   0.000   0.000   0.000
  0.000  -0.000   0.000  -0.000  -0.000   0.000  -0.000   0.000
 -0.000   0.000   0.000   0.000  -0.000  -0.000   0.000   0.000
 pseudopotential strength for first ion, spin component:           2
 -0.135  -0.000   0.000  -0.013   0.000  -0.832  -0.000   0.000
 -0.000  -0.126  -0.000  -0.000  -0.013  -0.000  -0.824  -0.000
  0.000  -0.000  -0.145  -0.000  -0.001   0.000  -0.000  -0.842
 -0.013  -0.000  -0.000  -0.125  -0.000  -0.013  -0.000  -0.000
  0.000  -0.013  -0.001  -0.000  -0.134   0.000  -0.013  -0.001
 -0.832  -0.000   0.000  -0.013   0.000  -1.458  -0.000   0.000
 -0.000  -0.824  -0.000  -0.000  -0.013  -0.000  -1.450  -0.000
  0.000  -0.000  -0.842  -0.000  -0.001   0.000  -0.000  -1.467
 -0.013  -0.000  -0.000  -0.823  -0.000  -0.013  -0.000  -0.000
  0.000  -0.013  -0.001  -0.000  -0.832   0.000  -0.013  -0.001
  0.000  -0.000   0.000   0.000  -0.000   0.000  -0.000   0.000
  0.000  -0.000   0.000   0.000  -0.000   0.000  -0.000   0.000
  0.000   0.000   0.000  -0.000   0.000   0.000  -0.000   0.000
 -0.000   0.000   0.000  -0.000   0.000  -0.000   0.000   0.000
 -0.000  -0.000  -0.000   0.000  -0.000  -0.000  -0.000  -0.000
  0.000   0.000   0.000  -0.000   0.000   0.000   0.000   0.000
 -0.000   0.000   0.000  -0.000   0.000  -0.000   0.000   0.000
 -0.000  -0.000  -0.000   0.000  -0.000  -0.000  -0.000  -0.000
 total augmentation occupancy for first ion, spin component:           1
  2.937  -0.000   0.000  -0.401   0.000  -1.336   0.000  -0.000   0.187  -0.000   0.000   0.000  -0.000  -0.000   0.000  -0.000
 -0.000   3.228  -0.001  -0.000  -0.404   0.000  -1.473   0.000   0.000   0.189  -0.001  -0.000  -0.000   0.000   0.000   0.000
  0.000  -0.001   2.661  -0.000  -0.008  -0.000   0.000  -1.208   0.000   0.005  -0.003  -0.000  -0.000  -0.000   0.000  -0.000
 -0.401  -0.000  -0.000   3.221  -0.000   0.187   0.000   0.000  -1.469   0.000   0.000   0.000   0.000   0.000  -0.000  -0.000
  0.000  -0.404  -0.008  -0.000   2.955  -0.000   0.189   0.005   0.000  -1.347   0.005   0.000  -0.000  -0.000   0.000  -0.000
 -1.336   0.000  -0.000   0.187  -0.000   1.485  -0.000   0.000  -0.031   0.000  -0.000  -0.000   0.000   0.000  -0.000  -0.000
  0.000  -1.473   0.000   0.000   0.189  -0.000   1.509  -0.000  -0.000  -0.032   0.001   0.000   0.000   0.000  -0.000  -0.000
 -0.000   0.000  -1.208   0.000   0.005   0.000  -0.000   1.465  -0.000  -0.003   0.002   0.000   0.000   0.000  -0.000  -0.000
  0.187   0.000   0.000  -1.469   0.000  -0.031  -0.000  -0.000   1.507  -0.000  -0.000  -0.000  -0.000  -0.000   0.000   0.000
 -0.000   0.189   0.005   0.000  -1.347   0.000  -0.032  -0.003  -0.000   1.492  -0.003  -0.000   0.000   0.000  -0.000  -0.000
  0.000  -0.001  -0.003   0.000   0.005  -0.000   0.001   0.002  -0.000  -0.003   2.334  -0.329  -0.000   0.000   0.000   0.000
  0.000  -0.000  -0.000   0.000   0.000  -0.000   0.000   0.000  -0.000  -0.000  -0.329   0.053   0.000  -0.000   0.000  -0.000
 -0.000  -0.000  -0.000   0.000  -0.000   0.000   0.000   0.000  -0.000   0.000  -0.000   0.000   0.309  -0.000  -0.000  -0.034
 -0.000   0.000  -0.000   0.000  -0.000   0.000   0.000   0.000  -0.000   0.000   0.000  -0.000  -0.000   0.309  -0.000   0.000
  0.000   0.000   0.000  -0.000   0.000  -0.000  -0.000  -0.000   0.000  -0.000   0.000   0.000  -0.000  -0.000   0.310   0.000
 -0.000   0.000  -0.000  -0.000  -0.000  -0.000  -0.000  -0.000   0.000  -0.000   0.000  -0.000  -0.034   0.000   0.000   0.004
  0.000  -0.000   0.000   0.000   0.000  -0.000   0.000  -0.000   0.000  -0.000  -0.000   0.000   0.000  -0.034   0.000  -0.000
 -0.000   0.000   0.000   0.000   0.000   0.000   0.000   0.000  -0.000   0.000   0.000   0.000   0.000   0.000  -0.034  -0.000
 total augmentation occupancy for first ion, spin component:           2
  0.000  -0.000   0.000   0.000   0.000  -0.000   0.000  -0.000  -0.000  -0.000  -0.000   0.000   0.000  -0.000   0.000  -0.000
 -0.000   0.000   0.000  -0.000   0.000   0.000  -0.000  -0.000   0.000   0.000   0.000  -0.000  -0.000   0.000  -0.000  -0.000
  0.000   0.000   0.000  -0.000  -0.000  -0.000  -0.000  -0.000   0.000   0.000  -0.000   0.000   0.000   0.000  -0.000  -0.000
  0.000  -0.000  -0.000   0.000  -0.000  -0.000   0.000   0.000  -0.000   0.000  -0.000   0.000  -0.000  -0.000  -0.000   0.000
  0.000   0.000  -0.000  -0.000   0.000  -0.000   0.000   0.000   0.000  -0.000   0.000  -0.000   0.000   0.000  -0.000  -0.000
 -0.000   0.000  -0.000  -0.000  -0.000   0.000  -0.000   0.000   0.000   0.000   0.000  -0.000  -0.000   0.000  -0.000   0.000
  0.000  -0.000  -0.000   0.000   0.000  -0.000   0.000   0.000  -0.000  -0.000  -0.000  -0.000   0.000  -0.000   0.000   0.000
 -0.000  -0.000  -0.000   0.000   0.000   0.000   0.000   0.000  -0.000  -0.000   0.000   0.000  -0.000   0.000   0.000   0.000
 -0.000   0.000   0.000  -0.000   0.000   0.000  -0.000  -0.000   0.000   0.000   0.000  -0.000   0.000   0.000   0.000  -0.000
 -0.000   0.000   0.000   0.000  -0.000   0.000  -0.000  -0.000   0.000   0.000  -0.000  -0.000   0.000  -0.000   0.000   0.000
 -0.000   0.000  -0.000  -0.000   0.000   0.000  -0.000   0.000   0.000  -0.000  -0.000   0.000  -0.000   0.000   0.000  -0.000
  0.000  -0.000   0.000   0.000  -0.000  -0.000  -0.000   0.000  -0.000  -0.000   0.000  -0.000   0.000  -0.000  -0.000  -0.000
  0.000  -0.000   0.000  -0.000   0.000  -0.000   0.000  -0.000   0.000   0.000  -0.000   0.000  -0.000  -0.000   0.000   0.000
 -0.000   0.000   0.000  -0.000   0.000   0.000  -0.000   0.000   0.000  -0.000   0.000  -0.000  -0.000  -0.000   0.000  -0.000
  0.000  -0.000  -0.000  -0.000  -0.000  -0.000   0.000   0.000   0.000   0.000   0.000   0.000   0.000   0.000  -0.000  -0.000
 -0.000  -0.000  -0.000   0.000  -0.000   0.000   0.000   0.000  -0.000   0.000  -0.000  -0.000   0.000  -0.000  -0.000  -0.000
 -0.000   0.000  -0.000   0.000   0.000   0.000   0.000   0.000  -0.000   0.000   0.000   0.000  -0.000   0.000  -0.000   0.000
  0.000   0.000   0.000  -0.000   0.000  -0.000  -0.000  -0.000   0.000  -0.000   0.000  -0.000  -0.000  -0.000   0.000   0.000


------------------------ aborting loop because EDIFF is reached ----------------------------------------



 ----------------------------------------------------------------------------- 
|                                                                             |
|  ADVICE TO THIS USER RUNNING 'VASP/VAMP'   (HEAR YOUR MASTER'S VOICE ...):  |
|                                                                             |
|      Your highest band is occupied at some k-points! Unless you are         |
|      performing a calculation for an insulator or semiconductor, without    |
|      unoccupied bands, you have included TOO FEW BANDS!! Please increase    |
|      the parameter NBANDS in file INCAR to ensure that the highest band     |
|      is unoccupied at all k-points. It is always recommended to             |
|      include a few unoccupied bands to accelerate the convergence of        |
|      molecular dynamics runs (even for insulators or semiconductors).       |
|      Because the presence of unoccupied bands improves wavefunction         |
|      prediction, and helps to suppress 'band-crossings.'                    |
|      Following all k-points will be listed (with the Fermi weights of       |
|      the highest band given in paranthesis) ... :                           |
|                                                                             |
|                         31       (-0.03531)                                 |
|                         31       (-0.03531)                                 |
|                                                                             |
|      The total occupancy of band no.    24 is  -0.00011 electrons ...       |
|                                                                             |
 ----------------------------------------------------------------------------- 

 


 total charge     
 
# of ion       s       p       d       tot
------------------------------------------
    1        0.500   0.505   8.330   9.335
    2        0.500   0.505   8.330   9.335
    3        0.500   0.505   8.330   9.335
    4        0.500   0.505   8.330   9.335
--------------------------------------------------
tot          1.999   2.019  33.321  37.338
 


 magnetization (x)
 
# of ion       s       p       d       tot
------------------------------------------
    1       -0.000  -0.000  -0.000  -0.000
    2       -0.000  -0.000  -0.000  -0.000
    3        0.000   0.000   0.000   0.000
    4        0.000   0.000   0.000   0.000
--------------------------------------------------
tot          0.000  -0.000   0.000   0.000
 
    CHARGE:  cpu time    0.3775: real time    0.3784
    FORLOC:  cpu time    0.0007: real time    0.0007
    FORNL :  cpu time    0.7930: real time    0.7949
    STRESS:  cpu time    1.6478: real time    1.6517
    FORCOR:  cpu time    0.0241: real time    0.0241
    FORHAR:  cpu time    0.0025: real time    0.0025
    MIXING:  cpu time    0.0008: real time    0.0008
    OFIELD:  cpu time    0.0000: real time    0.0000

  FORCE on cell =-STRESS in cart. coord.  units (eV):
  Direction    XX          YY          ZZ          XY          YZ          ZX
  --------------------------------------------------------------------------------------
  Alpha Z   189.89775   189.89775   189.89775
  Ewald   -1256.61684 -1256.61684 -1256.61679     0.00002    -0.00000     0.00001
  Hartree   296.94588   296.75398   296.75738     0.00000    -0.00479     0.00000
  E(xc)    -220.09721  -220.09291  -220.09314     0.00000     0.00032     0.00000
  Local       4.23071     4.77524     4.75763    -0.00001     0.02488    -0.00001
  n-local   -31.08926   -31.81219   -30.77559     1.85043     0.15786     1.37341
  augment   704.04365   703.90256   703.90321    -0.00001    -0.00095    -0.00001
  Kinetic   313.15914   312.04483   314.11478     0.79671     0.35249     0.28387
  Fock        0.00000     0.00000     0.00000     0.00000     0.00000     0.00000
  -------------------------------------------------------------------------------------
  Total       0.47381     0.39343     0.40420    -0.00000    -0.01523    -0.00000
  in kB      17.66653    14.66954    15.07100    -0.00000    -0.56776    -0.00000
  external pressure =       15.80 kB  Pullay stress =        0.00 kB


 VOLUME and BASIS-vectors are now :
 -----------------------------------------------------------------------------
  energy-cutoff  :      520.00
  volume of cell :       42.97
      direct lattice vectors                 reciprocal lattice vectors
     2.476700100  0.000000000  0.000000000     0.403763056  0.000000009  0.000000007
    -0.000000100  2.859846930  2.022217100     0.000000000  0.233112709  0.164835583
     0.000000000 -2.859846940  4.044434200     0.000000000 -0.116556355  0.164835582

  length of vectors
     2.476700100  3.502582827  4.953400097     0.403763056  0.285503598  0.201881532


 FORCES acting on ions
    electron-ion (+dipol)            ewald-force                    non-local-force                 convergence-correction
 -----------------------------------------------------------------------------------------------
   0.498E-13 -.204E-04 0.288E-04   0.540E-14 -.284E-13 0.000E+00   0.187E-22 0.492E-04 -.696E-04   -.178E-13 -.342E-04 0.483E-04
   0.506E-12 0.204E-04 -.288E-04   0.289E-14 0.862E-14 -.180E-13   0.510E-22 -.492E-04 0.696E-04   0.298E-13 0.342E-04 -.483E-04
   0.500E-13 -.204E-04 0.288E-04   0.310E-14 0.000E+00 0.284E-13   -.516E-22 0.492E-04 -.696E-04   -.172E-13 -.342E-04 0.483E-04
   0.509E-12 0.204E-04 -.288E-04   0.588E-15 0.278E-13 -.160E-15   0.484E-22 -.492E-04 0.696E-04   0.269E-13 0.342E-04 -.483E-04
 -----------------------------------------------------------------------------------------------
   0.112E-11 0.146E-11 -.101E-12   0.120E-13 0.797E-14 0.103E-13   0.665E-22 -.203E-19 -.136E-19   0.217E-13 0.368E-13 -.110E-13
 
 
 POSITION                                       TOTAL-FORCE (eV/Angst)
 -----------------------------------------------------------------------------------
      0.00000      0.00000      0.00000        -0.000000     -0.000005      0.000008
      1.23835      0.71496      2.02222         0.000000      0.000005     -0.000008
      0.00000     -1.42992      2.02222        -0.000000     -0.000005      0.000008
      1.23835     -0.71496      4.04443         0.000000      0.000005     -0.000008
 -----------------------------------------------------------------------------------
    total drift:                                0.000000      0.000000     -0.000000


--------------------------------------------------------------------------------------------------------



  FREE ENERGIE OF THE ION-ELECTRON SYSTEM (eV)
  ---------------------------------------------------
  free  energy   TOTEN  =       -21.66165225 eV

  energy  without entropy=      -21.61145415  energy(sigma->0) =      -21.64491955
 


--------------------------------------------------------------------------------------------------------


    POTLOK:  cpu time    0.6060: real time    0.6074


--------------------------------------------------------------------------------------------------------


     LOOP+:  cpu time   82.5212: real time   82.7485
    4ORBIT:  cpu time    0.0000: real time    0.0000
 


 total charge     
 
# of ion       s       p       d       tot
------------------------------------------
    1        0.500   0.505   8.330   9.335
    2        0.500   0.505   8.330   9.335
    3        0.500   0.505   8.330   9.335
    4        0.500   0.505   8.330   9.335
--------------------------------------------------
tot          1.999   2.019  33.321  37.338
 


 magnetization (x)
 
# of ion       s       p       d       tot
------------------------------------------
    1       -0.000  -0.000  -0.000  -0.000
    2       -0.000  -0.000  -0.000  -0.000
    3        0.000   0.000   0.000   0.000
    4        0.000   0.000   0.000   0.000
--------------------------------------------------
tot          0.000  -0.000   0.000   0.000
 

 total amount of memory used by VASP MPI-rank0    96765. kBytes
=======================================================================

   base      :      30000. kBytes
   nonl-proj :      36653. kBytes
   fftplans  :        837. kBytes
   grid      :       3273. kBytes
   one-center:        124. kBytes
   wavefun   :      25878. kBytes
 
  
  
 General timing and accounting informations for this job:
 ========================================================
  
                  Total CPU time used (sec):       85.180
                            User time (sec):       84.378
                          System time (sec):        0.802
                         Elapsed time (sec):       86.400
  
                   Maximum memory used (kb):      132676.
                   Average memory used (kb):           0.
  
                          Minor page faults:        37236
                          Major page faults:            0
                 Voluntary context switches:         1403
