       N       E                     dE             d eps       ncg     rms          rms(c)
DAV:   1     0.449177873747E+03    0.44918E+03   -0.18427E+04 26544   0.327E+03
DAV:   2     0.509076607144E+02   -0.39827E+03   -0.37494E+03 35860   0.400E+02
DAV:   3    -0.259047248317E+02   -0.76812E+02   -0.75664E+02 37444   0.253E+02
DAV:   4    -0.316873058127E+02   -0.57826E+01   -0.56336E+01 42980   0.558E+01
DAV:   5    -0.322205514313E+02   -0.53325E+00   -0.52561E+00 42824   0.156E+01    0.186E+01
DAV:   6    -0.386009507693E+02   -0.63804E+01   -0.85570E+01 36972   0.984E+01    0.224E+01
DAV:   7    -0.383786898288E+02    0.22226E+00   -0.12009E+01 36656   0.616E+01    0.989E+00
DAV:   8    -0.374510243392E+02    0.92767E+00   -0.42762E+00 39476   0.325E+01    0.423E+00
DAV:   9    -0.376038186950E+02   -0.15279E+00   -0.37196E+00 41776   0.169E+01    0.478E+00
DAV:  10    -0.374381881682E+02    0.16563E+00   -0.21387E+00 38700   0.120E+01    0.182E+00
DAV:  11    -0.374756582527E+02   -0.37470E-01   -0.94439E-02 45968   0.240E+00    0.889E-01
DAV:  12    -0.374723166357E+02    0.33416E-02   -0.22324E-02 37700   0.128E+00    0.691E-01
DAV:  13    -0.374703211058E+02    0.19955E-02   -0.73581E-03 42740   0.761E-01    0.503E-01
DAV:  14    -0.374687844353E+02    0.15367E-02   -0.53075E-03 39528   0.558E-01    0.223E-01
DAV:  15    -0.374686248153E+02    0.15962E-03   -0.16446E-03 41392   0.346E-01    0.921E-02
DAV:  16    -0.374686505741E+02   -0.25759E-04   -0.11402E-03 40216   0.293E-01    0.552E-02
DAV:  17    -0.374686673846E+02   -0.16810E-04   -0.11786E-04 41132   0.765E-02    0.510E-02
DAV:  18    -0.374686459388E+02    0.21446E-04   -0.51247E-05 39600   0.646E-02    0.243E-02
DAV:  19    -0.374686355540E+02    0.10385E-04   -0.16955E-05 40024   0.346E-02    0.894E-03
DAV:  20    -0.374686310895E+02    0.44645E-05   -0.45169E-06 38656   0.177E-02    0.183E-03
DAV:  21    -0.374686295929E+02    0.14967E-05   -0.38642E-07 24648   0.469E-03    0.768E-04
DAV:  22    -0.374686289323E+02    0.66057E-06   -0.69092E-08 17276   0.365E-03    0.293E-04
DAV:  23    -0.374686288949E+02    0.37351E-07   -0.25279E-08 17260   0.256E-03
   1 F= -.37468629E+02 E0= -.37468629E+02  d E =0.000000E+00  mag=    -0.0000
