       N       E                     dE             d eps       ncg     rms          rms(c)
DAV:   1     0.494664055041E+04    0.49466E+04   -0.17651E+05 11448   0.246E+03
DAV:   2     0.614303003673E+03   -0.43323E+04   -0.39667E+04 11424   0.668E+02
DAV:   3    -0.229537747479E+03   -0.84384E+03   -0.73142E+03 11808   0.275E+02
DAV:   4    -0.293752340553E+03   -0.64215E+02   -0.63414E+02 12960   0.733E+01
DAV:   5    -0.294511249657E+03   -0.75891E+00   -0.75645E+00 12732   0.894E+00    0.809E+01
DAV:   6    -0.235280453008E+03    0.59231E+02   -0.25287E+02 14808   0.810E+01    0.912E+01
DAV:   7    -0.212062450689E+03    0.23218E+02   -0.11404E+02 12348   0.636E+01    0.437E+01
DAV:   8    -0.218322934630E+03   -0.62605E+01   -0.21419E+01 12120   0.172E+01    0.265E+01
DAV:   9    -0.222501336366E+03   -0.41784E+01   -0.81903E+00 12624   0.170E+01    0.270E+01
DAV:  10    -0.222170087037E+03    0.33125E+00   -0.24539E+00 12564   0.689E+00    0.186E+01
DAV:  11    -0.221607410967E+03    0.56268E+00   -0.22698E-01 14352   0.281E+00    0.122E+01
DAV:  12    -0.221405433713E+03    0.20198E+00   -0.19516E-01 15228   0.240E+00    0.843E+00
DAV:  13    -0.221404014543E+03    0.14192E-02   -0.11254E-01 13932   0.225E+00    0.466E+00
DAV:  14    -0.221448690496E+03   -0.44676E-01   -0.15314E-01 14964   0.199E+00    0.181E+00
DAV:  15    -0.221466765881E+03   -0.18075E-01   -0.62088E-02 12744   0.671E-01    0.144E+00
DAV:  16    -0.221461667519E+03    0.50984E-02   -0.90830E-03 14352   0.708E-01    0.377E-01
DAV:  17    -0.221462297221E+03   -0.62970E-03   -0.48341E-03 12432   0.180E-01    0.195E-01
DAV:  18    -0.221462532385E+03   -0.23516E-03   -0.24566E-04 14148   0.827E-02    0.862E-02
DAV:  19    -0.221462589322E+03   -0.56937E-04   -0.10351E-04 13740   0.427E-02    0.176E-02
DAV:  20    -0.221462597978E+03   -0.86562E-05   -0.21446E-05 12468   0.145E-02    0.876E-03
DAV:  21    -0.221462596503E+03    0.14755E-05   -0.22722E-06 12660   0.822E-03    0.113E-02
DAV:  22    -0.221462597678E+03   -0.11747E-05   -0.11053E-06 10716   0.544E-03    0.515E-03
DAV:  23    -0.221462597568E+03    0.10994E-06   -0.28790E-07  9780   0.307E-03    0.753E-04
DAV:  24    -0.221462597014E+03    0.55398E-06   -0.83558E-08  6456   0.824E-04    0.468E-04
DAV:  25    -0.221462596975E+03    0.38228E-07   -0.64869E-09  6216   0.372E-04
   1 F= -.22146260E+03 E0= -.22146260E+03  d E =0.000000E+00  mag=    42.3369
