 vasp.5.4.4.18Apr17-6-g9f103f2a35 (build Apr 28 2018 00:24:27) complex          
  
 executed on             LinuxIFC date 2021.09.06  03:39:35
 running on   24 total cores
 distrk:  each k-point on   24 cores,    1 groups
 distr:  one band on NCORES_PER_BAND=   4 cores,    6 groups


--------------------------------------------------------------------------------------------------------


 INCAR:
 POTCAR:    PAW_PBE Fe_pv 02Aug2007               
 POTCAR:    PAW_PBE O 08Apr2002                   
 POTCAR:    PAW_PBE Fe_pv 02Aug2007               
   VRHFIN =Fe:  3pd7s1                                                          
   LEXCH  = PE                                                                  
   EATOM  =  2457.4239 eV,  180.6156 Ry                                         
                                                                                
   TITEL  = PAW_PBE Fe_pv 02Aug2007                                             
   LULTRA =        F    use ultrasoft PP ?                                      
   IUNSCR =        1    unscreen: 0-lin 1-nonlin 2-no                           
   RPACOR =    1.750    partial core radius                                     
   POMASS =   55.847; ZVAL   =   14.000    mass and valenz                      
   RCORE  =    2.200    outmost cutoff radius                                   
   RWIGS  =    2.200; RWIGS  =    1.164    wigner-seitz radius (au A)           
   ENMAX  =  293.238; ENMIN  =  219.928 eV                                      
   ICORE  =        3    local potential                                         
   LCOR   =        T    correct aug charges                                     
   LPAW   =        T    paw PP                                                  
   EAUG   =  578.342                                                            
   DEXC   =    0.000                                                            
   RMAX   =    2.249    core radius for proj-oper                               
   RAUG   =    1.300    factor for augmentation sphere                          
   RDEP   =    2.296    radius for radial grids                                 
   RDEPT  =    1.766    core radius for aug-charge                              
                                                                                
   Atomic configuration                                                         
    8 entries                                                                   
     n  l   j            E        occ.                                          
     1  0  0.50     -6993.8440   2.0000                                         
     2  0  0.50      -814.6047   2.0000                                         
     2  1  1.50      -693.3689   6.0000                                         
     3  0  0.50       -89.4732   2.0000                                         
     3  1  1.50       -55.6373   6.0000                                         
     3  2  2.50        -3.8151   7.0000                                         
     4  0  0.50        -4.2551   1.0000                                         
     4  3  2.50        -1.3606   0.0000                                         
   Description                                                                  
     l       E           TYP  RCUT    TYP  RCUT                                 
     1    -55.6372668     23  2.000                                             
     1     -5.4423304     23  2.000                                             
     2     -3.8151096     23  2.200                                             
     2     -5.1756922     23  2.200                                             
     0     -4.2550951     23  2.200                                             
     0     27.2116520     23  2.200                                             
     3     -1.3605826     23  2.200                                             
  local pseudopotential read in
  partial core-charges read in
  partial kinetic energy density read in
  atomic valenz-charges read in
  non local Contribution for L=           1  read in
    real space projection operators read in
  non local Contribution for L=           1  read in
    real space projection operators read in
  non local Contribution for L=           2  read in
    real space projection operators read in
  non local Contribution for L=           2  read in
    real space projection operators read in
  non local Contribution for L=           0  read in
    real space projection operators read in
  non local Contribution for L=           0  read in
    real space projection operators read in
    PAW grid and wavefunctions read in
 
   number of l-projection  operators is LMAX  =           6
   number of lm-projection operators is LMMAX =          18
 
 POTCAR:    PAW_PBE O 08Apr2002                   
   VRHFIN =O: s2p4                                                              
   LEXCH  = PE                                                                  
   EATOM  =   432.3788 eV,   31.7789 Ry                                         
                                                                                
   TITEL  = PAW_PBE O 08Apr2002                                                 
   LULTRA =        F    use ultrasoft PP ?                                      
   IUNSCR =        1    unscreen: 0-lin 1-nonlin 2-no                           
   RPACOR =    1.200    partial core radius                                     
   POMASS =   16.000; ZVAL   =    6.000    mass and valenz                      
   RCORE  =    1.520    outmost cutoff radius                                   
   RWIGS  =    1.550; RWIGS  =    0.820    wigner-seitz radius (au A)           
   ENMAX  =  400.000; ENMIN  =  300.000 eV                                      
   ICORE  =        2    local potential                                         
   LCOR   =        T    correct aug charges                                     
   LPAW   =        T    paw PP                                                  
   EAUG   =  605.392                                                            
   DEXC   =    0.000                                                            
   RMAX   =    1.553    core radius for proj-oper                               
   RAUG   =    1.300    factor for augmentation sphere                          
   RDEP   =    1.550    radius for radial grids                                 
   RDEPT  =    1.329    core radius for aug-charge                              
                                                                                
   Atomic configuration                                                         
    4 entries                                                                   
     n  l   j            E        occ.                                          
     1  0  0.50      -514.6923   2.0000                                         
     2  0  0.50       -23.9615   2.0000                                         
     2  1  0.50        -9.0305   4.0000                                         
     3  2  1.50        -9.5241   0.0000                                         
   Description                                                                  
     l       E           TYP  RCUT    TYP  RCUT                                 
     0    -23.9615318     23  1.200                                             
     0     -9.5240782     23  1.200                                             
     1     -9.0304911     23  1.520                                             
     1      8.1634956     23  1.520                                             
     2     -9.5240782      7  1.500                                             
  local pseudopotential read in
  partial core-charges read in
  partial kinetic energy density read in
  kinetic energy density of atom read in
  atomic valenz-charges read in
  non local Contribution for L=           0  read in
    real space projection operators read in
  non local Contribution for L=           0  read in
    real space projection operators read in
  non local Contribution for L=           1  read in
    real space projection operators read in
  non local Contribution for L=           1  read in
    real space projection operators read in
    PAW grid and wavefunctions read in
 
   number of l-projection  operators is LMAX  =           4
   number of lm-projection operators is LMMAX =           8
 
 Optimization of the real space projectors (new method)

 maximal supplied QI-value         = 17.01
 optimisation between [QCUT,QGAM] = [ 14.46, 28.91] = [ 58.52,234.09] Ry 
 Optimized for a Real-space Cutoff    1.27 Angstroem

   l    n(q)    QCUT    max X(q) W(low)/X(q) W(high)/X(q)  e(spline) 
   1     11    14.456     4.267    0.75E-04    0.84E-04    0.67E-06
   1     11    14.456     5.750    0.10E-03    0.13E-03    0.10E-05
   2     10    14.456    53.656    0.96E-04    0.63E-04    0.46E-06
   2     10    14.456    49.521    0.99E-04    0.65E-04    0.47E-06
   0     11    14.456    31.246    0.25E-04    0.28E-04    0.55E-06
   0     11    14.456    12.201    0.20E-04    0.23E-04    0.46E-06
 Optimization of the real space projectors (new method)

 maximal supplied QI-value         = 24.76
 optimisation between [QCUT,QGAM] = [ 14.36, 28.96] = [ 57.73,234.92] Ry 
 Optimized for a Real-space Cutoff    0.98 Angstroem

   l    n(q)    QCUT    max X(q) W(low)/X(q) W(high)/X(q)  e(spline) 
   0      8    14.358    20.381    0.72E-04    0.23E-03    0.89E-07
   0      8    14.358    15.268    0.76E-04    0.24E-03    0.10E-06
   1      8    14.358     5.964    0.17E-03    0.15E-03    0.14E-06
   1      8    14.358     5.382    0.15E-03    0.12E-03    0.12E-06
  PAW_PBE Fe_pv 02Aug2007               :
 energy of atom  1       EATOM=-2457.4239
 kinetic energy error for atom=    0.0012 (will be added to EATOM!!)
  PAW_PBE O 08Apr2002                   :
 energy of atom  2       EATOM= -432.3788
 kinetic energy error for atom=    0.0041 (will be added to EATOM!!)
 
 
 POSCAR: Fe12 O18                                
  positions in direct lattice
  No initial velocities read in
 exchange correlation table for  LEXCH =        8
   RHO(1)=    0.500       N(1)  =     2000
   RHO(2)=  100.500       N(2)  =     4000
 


--------------------------------------------------------------------------------------------------------


 ion  position               nearest neighbor table
   1  0.000  0.000  0.355-  17 1.94  23 1.94  28 1.94  25 2.12  19 2.12  13 2.12
   2  0.000  0.000  0.645-  16 1.94  22 1.94  29 1.94  26 2.12  20 2.12  14 2.12
   3  0.333  0.667  0.022-  30 1.94  24 1.94  18 1.94  27 2.12  21 2.12  15 2.12
   4  0.667  0.333  0.689-  14 1.94  20 1.94  26 1.94  22 2.12  29 2.12  16 2.12
   5  0.333  0.667  0.311-  13 1.94  19 1.94  25 1.94  23 2.12  28 2.12  17 2.12
   6  0.667  0.333  0.978-  27 1.94  21 1.94  15 1.94  30 2.12  24 2.12  18 2.12
   7  0.000  0.000  0.145-  24 1.94  18 1.94  30 1.94  25 2.12  19 2.12  13 2.12
   8  0.000  0.000  0.855-  21 1.94  15 1.94  27 1.94  26 2.12  20 2.12  14 2.12
   9  0.333  0.667  0.811-  20 1.94  14 1.94  26 1.94  27 2.12  21 2.12  15 2.12
  10  0.333  0.667  0.522-  29 1.94  16 1.94  22 1.94  23 2.12  28 2.12  17 2.12
  11  0.667  0.333  0.478-  28 1.94  17 1.94  23 1.94  22 2.12  29 2.12  16 2.12
  12  0.667  0.333  0.189-  19 1.94  13 1.94  25 1.94  30 2.12  24 2.12  18 2.12
  13  0.306  0.000  0.250-   5 1.94  12 1.94   7 2.12   1 2.12
  14  0.694  0.000  0.750-   4 1.94   9 1.94   8 2.12   2 2.12
  15  0.640  0.667  0.917-   6 1.94   8 1.94   9 2.12   3 2.12
  16  0.973  0.333  0.583-  10 1.94   2 1.94   4 2.12  11 2.12
  17  0.027  0.667  0.417-  11 1.94   1 1.94   5 2.12  10 2.12
  18  0.360  0.333  0.083-   3 1.94   7 1.94  12 2.12   6 2.12
  19  0.000  0.306  0.250-  12 1.94   5 1.94   7 2.12   1 2.12
  20  0.000  0.694  0.750-   9 1.94   4 1.94   8 2.12   2 2.12
  21  0.333  0.973  0.917-   6 1.94   8 1.94   9 2.12   3 2.12
  22  0.667  0.640  0.583-  10 1.94   2 1.94   4 2.12  11 2.12
  23  0.333  0.360  0.417-  11 1.94   1 1.94   5 2.12  10 2.12
  24  0.667  0.027  0.083-   3 1.94   7 1.94  12 2.12   6 2.12
  25  0.694  0.694  0.250-  12 1.94   5 1.94   7 2.12   1 2.12
  26  0.306  0.306  0.750-   9 1.94   4 1.94   8 2.12   2 2.12
  27  0.027  0.360  0.917-   6 1.94   8 1.94   9 2.12   3 2.12
  28  0.640  0.973  0.417-  11 1.94   1 1.94   5 2.12  10 2.12
  29  0.360  0.027  0.583-  10 1.94   2 1.94   4 2.12  11 2.12
  30  0.973  0.640  0.083-   3 1.94   7 1.94  12 2.12   6 2.12
 
  LATTYP: Found a hexagonal cell.
 ALAT       =     5.0350995578
 C/A-ratio  =     2.7324385232
  
  Lattice vectors:
  
 A1 = (   5.0351000000,   0.0000000000,   0.0000000000)
 A2 = (  -2.5175500000,   4.3605240000,   0.0000000000)
 A3 = (   0.0000000000,   0.0000000000,  13.7581000000)


Analysis of symmetry for initial positions (statically):
=====================================================================
 Subroutine PRICEL returns following result:
 
  LATTYP: Found a trigonal (rhomboedric) cell.
 ALAT       =     5.4297801492
 COS(alpha) =     0.5700456062
  
  Lattice vectors:
  
 A1 = (  -2.5175449649,  -1.4535109070,  -4.5860425054)
 A2 = (  -0.0000025175,   2.9070174535,  -4.5860287473)
 A3 = (   2.5175474825,  -1.4535065465,  -4.5860287473)
 
   3 primitive cells build up your supercell.
 

 Routine SETGRP: Setting up the symmetry group for a 
 hexagonal supercell.


 Subroutine GETGRP returns: Found 12 space group operations
 (whereof  6 operations were pure point group operations)
 out of a pool of 24 trial point group operations.


The static configuration has the point symmetry S_6 .
 The point group associated with its full space group is D_3d.


Analysis of symmetry for dynamics (positions and initial velocities):
=====================================================================
 Subroutine PRICEL returns following result:
 
  LATTYP: Found a trigonal (rhomboedric) cell.
 ALAT       =     5.4297801492
 COS(alpha) =     0.5700456062
  
  Lattice vectors:
  
 A1 = (  -2.5175449649,  -1.4535109070,  -4.5860425054)
 A2 = (  -0.0000025175,   2.9070174535,  -4.5860287473)
 A3 = (   2.5175474825,  -1.4535065465,  -4.5860287473)
 
   3 primitive cells build up your supercell.
 

 Routine SETGRP: Setting up the symmetry group for a 
 hexagonal supercell.


 Subroutine GETGRP returns: Found 12 space group operations
 (whereof  6 operations were pure point group operations)
 out of a pool of 24 trial point group operations.


The dynamic configuration has the point symmetry S_6 .
 The point group associated with its full space group is D_3d.


Analysis of structural, dynamic, and magnetic symmetry:
=====================================================================
 Subroutine PRICEL returns following result:
 
  LATTYP: Found a trigonal (rhomboedric) cell.
 ALAT       =     5.4297801492
 COS(alpha) =     0.5700456062
  
  Lattice vectors:
  
 A1 = (  -2.5175449649,  -1.4535109070,  -4.5860425054)
 A2 = (  -0.0000025175,   2.9070174535,  -4.5860287473)
 A3 = (   2.5175474825,  -1.4535065465,  -4.5860287473)
 
   3 primitive cells build up your supercell.
 

 Routine SETGRP: Setting up the symmetry group for a 
 hexagonal supercell.


 Subroutine GETGRP returns: Found 12 space group operations
 (whereof  6 operations were pure point group operations)
 out of a pool of 24 trial point group operations.


The magnetic configuration has the point symmetry S_6 .
 The point group associated with its full space group is D_3d.


 Subroutine INISYM returns: Found 12 space group operations
 (whereof  6 operations are pure point group operations),
 and found     3 'primitive' translations

 
 
 KPOINTS: pymatgen with grid density = 2464 / numb

Automatic generation of k-mesh.
Space group operators:
 irot       det(A)        alpha          n_x          n_y          n_z        tau_x        tau_y        tau_z
    1     1.000000     0.000000     1.000000     0.000000     0.000000     0.000000     0.000000     0.000000
    2    -1.000000     0.000000     1.000000     0.000000     0.000000     0.000000     0.000000     0.000000
    3     1.000000   120.000000     0.000000     0.000000    -1.000000     0.000000     0.000000     0.000000
    4    -1.000000   120.000000     0.000000     0.000000    -1.000000     0.000000     0.000000     0.000000
    5     1.000000   120.000000     0.000000     0.000000     1.000000     0.000000     0.000000     0.000000
    6    -1.000000   120.000000     0.000000     0.000000     1.000000     0.000000     0.000000     0.000000
    7     1.000000   180.000000     1.000000     0.000000     0.000000     0.000001    -0.000000    -0.500000
    8    -1.000000   180.000000     1.000000     0.000000     0.000000     0.000001    -0.000000    -0.500000
    9     1.000000   180.000000     0.500000    -0.866025     0.000000     0.000000     0.000000    -0.500000
   10    -1.000000   180.000000     0.500000    -0.866025     0.000000     0.000000     0.000000    -0.500000
   11     1.000000   180.000000    -0.500000    -0.866025     0.000000     0.000000     0.000000    -0.500000
   12    -1.000000   180.000000    -0.500000    -0.866025     0.000000     0.000000     0.000000    -0.500000
 
 Subroutine IBZKPT returns following result:
 ===========================================
 
 Found     14 irreducible k-points:
 
 Following reciprocal coordinates:
            Coordinates               Weight
  0.000000  0.000000  0.000000      1.000000
  0.166667  0.000000  0.000000      6.000000
  0.333333  0.000000  0.000000      6.000000
  0.500000  0.000000  0.000000      3.000000
  0.166667  0.166667  0.000000      6.000000
  0.333333  0.166667  0.000000     12.000000
  0.333333  0.333333  0.000000      2.000000
  0.000000  0.000000  0.500000      1.000000
  0.166667  0.000000  0.500000      6.000000
  0.333333  0.000000  0.500000      6.000000
  0.500000  0.000000  0.500000      3.000000
  0.166667  0.166667  0.500000      6.000000
  0.333333  0.166667  0.500000     12.000000
  0.333333  0.333333  0.500000      2.000000
 
 Following cartesian coordinates:
            Coordinates               Weight
  0.000000  0.000000  0.000000      1.000000
  0.033101  0.019111  0.000000      6.000000
  0.066202  0.038222  0.000000      6.000000
  0.099303  0.057333  0.000000      3.000000
  0.033101  0.057333  0.000000      6.000000
  0.066202  0.076443  0.000000     12.000000
  0.066202  0.114665  0.000000      2.000000
  0.000000  0.000000  0.036342      1.000000
  0.033101  0.019111  0.036342      6.000000
  0.066202  0.038222  0.036342      6.000000
  0.099303  0.057333  0.036342      3.000000
  0.033101  0.057333  0.036342      6.000000
  0.066202  0.076443  0.036342     12.000000
  0.066202  0.114665  0.036342      2.000000
 
 TETIRR: Found     71 inequivalent tetrahedra from      432


--------------------------------------------------------------------------------------------------------




 Dimension of arrays:
   k-points           NKPTS =     14   k-points in BZ     NKDIM =     14   number of bands    NBANDS=    204
   number of dos      NEDOS =    301   number of ions     NIONS =     30
   non local maximal  LDIM  =      6   non local SUM 2l+1 LMDIM =     18
   total plane-waves  NPLWV = 294912
   max r-space proj   IRMAX =   8500   max aug-charges    IRDMAX=  29111
   dimension x,y,z NGX =    48 NGY =   48 NGZ =  128
   dimension x,y,z NGXF=    96 NGYF=   96 NGZF=  256
   support grid    NGXF=    96 NGYF=   96 NGZF=  256
   ions per type =              12  18
   NGX,Y,Z   is equivalent  to a cutoff of  15.85, 15.85, 15.47 a.u.
   NGXF,Y,Z  is equivalent  to a cutoff of  31.70, 31.70, 30.93 a.u.

 SYSTEM =  unknown system                          
 POSCAR =  Fe12 O18                                

 Startparameter for this run:
   NWRITE =      2    write-flag & timer
   PREC   = accura    normal or accurate (medium, high low for compatibility)
   ISTART =      0    job   : 0-new  1-cont  2-samecut
   ICHARG =      2    charge: 1-file 2-atom 10-const
   ISPIN  =      2    spin polarized calculation?
   LNONCOLLINEAR =      F non collinear calculations
   LSORBIT =      F    spin-orbit coupling
   INIWAV =      1    electr: 0-lowe 1-rand  2-diag
   LASPH  =      F    aspherical Exc in radial PAW
   METAGGA=      F    non-selfconsistent MetaGGA calc.

 Electronic Relaxation 1
   ENCUT  =  800.0 eV  58.80 Ry    7.67 a.u.  11.61 11.61 31.73*2*pi/ulx,y,z
   ENINI  =  800.0     initial cutoff
   ENAUG  =  605.4 eV  augmentation charge cutoff
   NELM   =    100;   NELMIN=  2; NELMDL= -5     # of ELM steps 
   EDIFF  = 0.1E-06   stopping-criterion for ELM
   LREAL  =      T    real-space projection
   NLSPLINE    = F    spline interpolate recip. space projectors
   LCOMPAT=      F    compatible to vasp.4.4
   GGA_COMPAT  = T    GGA compatible to vasp.4.4-vasp.4.6
   LMAXPAW     = -100 max onsite density
   LMAXMIX     =    2 max onsite mixed and CHGCAR
   VOSKOWN=      0    Vosko Wilk Nusair interpolation
   ROPT   =   -0.00025  -0.00025
 Ionic relaxation
   EDIFFG = 0.1E-05   stopping-criterion for IOM
   NSW    =      0    number of steps for IOM
   NBLOCK =      1;   KBLOCK =      1    inner block; outer block 
   IBRION =     -1    ionic relax: 0-MD 1-quasi-New 2-CG
   NFREE  =      0    steps in history (QN), initial steepest desc. (CG)
   ISIF   =      3    stress and relaxation
   IWAVPR =     10    prediction:  0-non 1-charg 2-wave 3-comb
   ISYM   =      2    0-nonsym 1-usesym 2-fastsym
   LCORR  =      T    Harris-Foulkes like correction to forces

   POTIM  = 0.5000    time-step for ionic-motion
   TEIN   =    0.0    initial temperature
   TEBEG  =    0.0;   TEEND  =   0.0 temperature during run
   SMASS  =  -3.00    Nose mass-parameter (am)
   estimated Nose-frequenzy (Omega)   =  0.10E-29 period in steps =****** mass=  -0.579E-27a.u.
   SCALEE = 1.0000    scale energy and forces
   NPACO  =    256;   APACO  = 16.0  distance and # of slots for P.C.
   PSTRESS=    0.0 pullay stress

  Mass of Ions in am
   POMASS =  55.85 16.00
  Ionic Valenz
   ZVAL   =  14.00  6.00
  Atomic Wigner-Seitz radii
   RWIGS  =  -1.00 -1.00
  virtual crystal weights 
   VCA    =   1.00  1.00
   NELECT =     276.0000    total number of electrons
   NUPDOWN=      -1.0000    fix difference up-down

 DOS related values:
   EMIN   =  10.00;   EMAX   =-10.00  energy-range for DOS
   EFERMI =   0.00
   ISMEAR =    -5;   SIGMA  =   0.05  broadening in eV -4-tet -1-fermi 0-gaus

 Electronic relaxation 2 (details)
   IALGO  =     38    algorithm
   LDIAG  =      T    sub-space diagonalisation (order eigenvalues)
   LSUBROT=      F    optimize rotation matrix (better conditioning)
   TURBO    =      0    0=normal 1=particle mesh
   IRESTART =      0    0=no restart 2=restart with 2 vectors
   NREBOOT  =      0    no. of reboots
   NMIN     =      0    reboot dimension
   EREF     =   0.00    reference energy to select bands
   IMIX   =      4    mixing-type and parameters
     AMIX     =   0.40;   BMIX     =  1.00
     AMIX_MAG =   1.60;   BMIX_MAG =  1.00
     AMIN     =   0.10
     WC   =   100.;   INIMIX=   1;  MIXPRE=   1;  MAXMIX= -45

 Intra band minimization:
   WEIMIN = 0.0000     energy-eigenvalue tresh-hold
   EBREAK =  0.12E-09  absolut break condition
   DEPER  =   0.30     relativ break condition  

   TIME   =   0.40     timestep for ELM

  volume/ion in A,a.u.               =      10.07        67.95
  Fermi-wavevector in a.u.,A,eV,Ry     =   1.588581  3.001983 34.335534  2.523591
  Thomas-Fermi vector in A             =   2.687563
 
 Write flags
   LWAVE        =      F    write WAVECAR
   LDOWNSAMPLE  =      F    k-point downsampling of WAVECAR
   LCHARG       =      F    write CHGCAR
   LVTOT        =      F    write LOCPOT, total local potential
   LVHAR        =      F    write LOCPOT, Hartree potential only
   LELF         =      F    write electronic localiz. function (ELF)
   LORBIT       =     11    0 simple, 1 ext, 2 COOP (PROOUT), +10 PAW based schemes


 Dipole corrections
   LMONO  =      F    monopole corrections only (constant potential shift)
   LDIPOL =      F    correct potential (dipole corrections)
   IDIPOL =      0    1-x, 2-y, 3-z, 4-all directions 
   EPSILON=  1.0000000 bulk dielectric constant

 Exchange correlation treatment:
   GGA     =    --    GGA type
   LEXCH   =     8    internal setting for exchange type
   VOSKOWN=      0    Vosko Wilk Nusair interpolation
   LHFCALC =     F    Hartree Fock is set to
   LHFONE  =     F    Hartree Fock one center treatment
   AEXX    =    0.0000 exact exchange contribution

 Linear response parameters
   LEPSILON=     F    determine dielectric tensor
   LRPA    =     F    only Hartree local field effects (RPA)
   LNABLA  =     F    use nabla operator in PAW spheres
   LVEL    =     F    velocity operator in full k-point grid
   LINTERFAST=   F  fast interpolation
   KINTER  =     0    interpolate to denser k-point grid
   CSHIFT  =0.1000    complex shift for real part using Kramers Kronig
   OMEGAMAX=  -1.0    maximum frequency
   DEG_THRESHOLD= 0.2000000E-02 threshold for treating states as degnerate
   RTIME   =   -0.100 relaxation time in fs
  (WPLASMAI=    0.000 imaginary part of plasma frequency in eV, 0.658/RTIME)
   DFIELD  = 0.0000000 0.0000000 0.0000000 field for delta impulse in time
 
 Orbital magnetization related:
   ORBITALMAG=     F  switch on orbital magnetization
   LCHIMAG   =     F  perturbation theory with respect to B field
   DQ        =  0.001000  dq finite difference perturbation B field
   LLRAUG    =     F  two centre corrections for induced B field



--------------------------------------------------------------------------------------------------------


 Static calculation
 charge density and potential will be updated during run
 spin polarized calculation
 Variant of blocked Davidson
 Davidson routine will perform the subspace rotation
 perform sub-space diagonalisation
    after iterative eigenvector-optimisation
 modified Broyden-mixing scheme, WC =      100.0
 initial mixing is a Kerker type mixing with AMIX =  0.4000 and BMIX =      1.0000
 Hartree-type preconditioning will be used
 using additional bands           66
 real space projection scheme for non local part
 use partial core corrections
 calculate Harris-corrections to forces 
   (improved forces if not selfconsistent)
 use gradient corrections 
 use of overlap-Matrix (Vanderbilt PP)
 Fermi weights with tetrahedron method with Bloechl corrections


--------------------------------------------------------------------------------------------------------


  energy-cutoff  :      800.00
  volume of cell :      302.07
      direct lattice vectors                 reciprocal lattice vectors
     5.035100000  0.000000000  0.000000000     0.198605787  0.114665118  0.000000000
    -2.517550000  4.360524000  0.000000000     0.000000000  0.229330236  0.000000000
     0.000000000  0.000000000 13.758100000     0.000000000  0.000000000  0.072684455

  length of vectors
     5.035100000  5.035099558 13.758100000     0.229330216  0.229330236  0.072684455


 
 k-points in units of 2pi/SCALE and weight: pymatgen with grid density = 2464 / numb
   0.00000000  0.00000000  0.00000000       0.014
   0.03310096  0.01911085  0.00000000       0.083
   0.06620193  0.03822171  0.00000000       0.083
   0.09930289  0.05733256  0.00000000       0.042
   0.03310096  0.05733256  0.00000000       0.083
   0.06620193  0.07644341  0.00000000       0.167
   0.06620193  0.11466512  0.00000000       0.028
   0.00000000  0.00000000  0.03634223       0.014
   0.03310096  0.01911085  0.03634223       0.083
   0.06620193  0.03822171  0.03634223       0.083
   0.09930289  0.05733256  0.03634223       0.042
   0.03310096  0.05733256  0.03634223       0.083
   0.06620193  0.07644341  0.03634223       0.167
   0.06620193  0.11466512  0.03634223       0.028
 
 k-points in reciprocal lattice and weights: pymatgen with grid density = 2464 / numb
   0.00000000  0.00000000  0.00000000       0.014
   0.16666667  0.00000000  0.00000000       0.083
   0.33333333  0.00000000  0.00000000       0.083
   0.50000000  0.00000000  0.00000000       0.042
   0.16666667  0.16666667  0.00000000       0.083
   0.33333333  0.16666667  0.00000000       0.167
   0.33333333  0.33333333  0.00000000       0.028
   0.00000000  0.00000000  0.50000000       0.014
   0.16666667  0.00000000  0.50000000       0.083
   0.33333333  0.00000000  0.50000000       0.083
   0.50000000  0.00000000  0.50000000       0.042
   0.16666667  0.16666667  0.50000000       0.083
   0.33333333  0.16666667  0.50000000       0.167
   0.33333333  0.33333333  0.50000000       0.028
 
 position of ions in fractional coordinates (direct lattice) 
   0.00000000  0.00000000  0.35532000
   0.00000000  0.00000000  0.64468000
   0.33333300  0.66666700  0.02198700
   0.66666700  0.33333300  0.68865300
   0.33333300  0.66666700  0.31134700
   0.66666700  0.33333300  0.97801300
   0.00000000  0.00000000  0.14468000
   0.00000000  0.00000000  0.85532000
   0.33333300  0.66666700  0.81134700
   0.33333300  0.66666700  0.52198700
   0.66666700  0.33333300  0.47801300
   0.66666700  0.33333300  0.18865300
   0.30618000  0.00000000  0.25000000
   0.69382000  0.00000000  0.75000000
   0.63951300  0.66666700  0.91666700
   0.97284700  0.33333300  0.58333300
   0.02715300  0.66666700  0.41666700
   0.36048700  0.33333300  0.08333300
   0.00000000  0.30618000  0.25000000
   0.00000000  0.69382000  0.75000000
   0.33333300  0.97284700  0.91666700
   0.66666700  0.63951300  0.58333300
   0.33333300  0.36048700  0.41666700
   0.66666700  0.02715300  0.08333300
   0.69382000  0.69382000  0.25000000
   0.30618000  0.30618000  0.75000000
   0.02715300  0.36048700  0.91666700
   0.63951300  0.97284700  0.41666700
   0.36048700  0.02715300  0.58333300
   0.97284700  0.63951300  0.08333300
 
 position of ions in cartesian coordinates  (Angst):
   0.00000000  0.00000000  4.88852809
   0.00000000  0.00000000  8.86957191
  -0.00000252  2.90701745  0.30249934
   2.51755252  1.45350655  9.47455684
  -0.00000252  2.90701745  4.28354316
   2.51755252  1.45350655 13.45560066
   0.00000000  0.00000000  1.99052191
   0.00000000  0.00000000 11.76757809
  -0.00000252  2.90701745 11.16259316
  -0.00000252  2.90701745  7.18154934
   2.51755252  1.45350655  6.57655066
   2.51755252  1.45350655  2.59550684
   1.54164692  0.00000000  3.43952500
   3.49345308  0.00000000 10.31857500
   1.54164440  2.90701745 12.61159625
   4.05919944  1.45350655  8.02555375
  -1.54164944  2.90701745  5.73254625
   0.97590560  1.45350655  1.14650375
  -0.77082346  1.33510524  3.43952500
  -1.74672654  3.02541876 10.31857500
  -0.77082598  4.24212269 12.61159625
   1.74672906  2.78861178  8.02555375
   0.77082094  1.57191222  5.73254625
   3.28837598  0.11840131  1.14650375
   1.74672654  3.02541876  3.43952500
   0.77082346  1.33510524 10.31857500
  -0.77082598  1.57191222 12.61159625
   0.77082094  4.24212269  5.73254625
   1.74672906  0.11840131  8.02555375
   3.28837598  2.78861178  1.14650375
 


--------------------------------------------------------------------------------------------------------


 k-point  1 :   0.0000 0.0000 0.0000  plane waves:   15549
 k-point  2 :   0.1667 0.0000 0.0000  plane waves:   15546
 k-point  3 :   0.3333 0.0000 0.0000  plane waves:   15518
 k-point  4 :   0.5000 0.0000 0.0000  plane waves:   15500
 k-point  5 :   0.1667 0.1667 0.0000  plane waves:   15533
 k-point  6 :   0.3333 0.1667 0.0000  plane waves:   15502
 k-point  7 :   0.3333 0.3333 0.0000  plane waves:   15504
 k-point  8 :   0.0000 0.0000 0.5000  plane waves:   15532
 k-point  9 :   0.1667 0.0000 0.5000  plane waves:   15566
 k-point 10 :   0.3333 0.0000 0.5000  plane waves:   15522
 k-point 11 :   0.5000 0.0000 0.5000  plane waves:   15520
 k-point 12 :   0.1667 0.1667 0.5000  plane waves:   15528
 k-point 13 :   0.3333 0.1667 0.5000  plane waves:   15500
 k-point 14 :   0.3333 0.3333 0.5000  plane waves:   15486

 maximum and minimum number of plane-waves per node :      3903     3863

 maximum number of plane-waves:     15566
 maximum index in each direction: 
   IXMAX=   11   IYMAX=   11   IZMAX=   31
   IXMIN=  -12   IYMIN=  -11   IZMIN=  -32


 real space projection operators:
  total allocation   :      17954.62 KBytes
  max/ min on nodes  :       4527.62       4428.25


 parallel 3D FFT for wavefunctions:
    minimum data exchange during FFTs selected (reduces bandwidth)
 parallel 3D FFT for charge:
    minimum data exchange during FFTs selected (reduces bandwidth)


 total amount of memory used by VASP MPI-rank0   120434. kBytes
=======================================================================

   base      :      30000. kBytes
   nonlr-proj:       9899. kBytes
   fftplans  :       5499. kBytes
   grid      :      13830. kBytes
   one-center:        248. kBytes
   wavefun   :      60958. kBytes
 
     INWAV:  cpu time    0.0000: real time    0.0001
 Broyden mixing: mesh for mixing (old mesh)
   NGX = 23   NGY = 23   NGZ = 63
  (NGX  = 96   NGY  = 96   NGZ  =256)
  gives a total of  33327 points

 initial charge density was supplied:
 charge density of overlapping atoms calculated
 number of electron     276.0000000 magnetization      70.8000000
 keeping initial charge density in first step


--------------------------------------------------------------------------------------------------------


 Maximum index for non-local projection operator         2094
 Maximum index for augmentation-charges         1274 (set IRDMAX)


--------------------------------------------------------------------------------------------------------


 First call to EWALD:  gamma=   0.264
 Maximum number of real-space cells 4x 4x 2
 Maximum number of reciprocal cells 2x 2x 5

    FEWALD:  cpu time    0.0019: real time    0.0019


--------------------------------------- Iteration      1(   1)  ---------------------------------------


    POTLOK:  cpu time    0.1297: real time    0.1323
    SETDIJ:  cpu time    0.0155: real time    0.0156
     EDDAV:  cpu time   19.8391: real time   19.8925
 BZINTS: Fermi energy: 32.337136;276.000000 electrons
         Band energy:1930.000703;  BLOECHL correction: -0.075144
       DOS:  cpu time    0.0460: real time    0.0461
    --------------------------------------------
      LOOP:  cpu time   20.0304: real time   20.0866

 eigenvalue-minimisations  : 11448
 total energy-change (2. order) : 0.4946641E+04  (-0.1765084E+05)
 number of electron     276.0000000 magnetization      70.8000000
 augmentation part      276.0000000 magnetization      70.8000000

 Free energy of the ion-electron system (eV)
  ---------------------------------------------------
  alpha Z        PSCENC =      1362.55286497
  Ewald energy   TEWEN  =    -25513.06237826
  -Hartree energ DENC   =    -10371.14386019
  -exchange      EXHF   =         0.00000000
  -V(xc)+E(xc)   XCENC  =      1375.27778129
  PAW double counting   =     30224.59406688   -31333.39571732
  entropy T*S    EENTRO =         0.00000000
  eigenvalues    EBANDS =      1930.00070318
  atomic energy  EATOM  =     37271.81708986
  Solvation  Ediel_sol  =         0.00000000
  ---------------------------------------------------
  free energy    TOTEN  =      4946.64055041 eV

  energy without entropy =     4946.64055041  energy(sigma->0) =     4946.64055041


--------------------------------------------------------------------------------------------------------




--------------------------------------- Iteration      1(   2)  ---------------------------------------


     EDDAV:  cpu time   19.8400: real time   19.8978
 BZINTS: Fermi energy: 12.089866;276.000000 electrons
         Band energy:***********;  BLOECHL correction: -0.022237
       DOS:  cpu time    0.0451: real time    0.0452
    --------------------------------------------
      LOOP:  cpu time   19.8852: real time   19.9430

 eigenvalue-minimisations  : 11424
 total energy-change (2. order) :-0.4332338E+04  (-0.3966669E+04)
 number of electron     276.0000000 magnetization      70.8000000
 augmentation part      276.0000000 magnetization      70.8000000

 Free energy of the ion-electron system (eV)
  ---------------------------------------------------
  alpha Z        PSCENC =      1362.55286497
  Ewald energy   TEWEN  =    -25513.06237826
  -Hartree energ DENC   =    -10371.14386019
  -exchange      EXHF   =         0.00000000
  -V(xc)+E(xc)   XCENC  =      1375.27778129
  PAW double counting   =     30224.59406688   -31333.39571732
  entropy T*S    EENTRO =         0.00000000
  eigenvalues    EBANDS =     -2402.33684355
  atomic energy  EATOM  =     37271.81708986
  Solvation  Ediel_sol  =         0.00000000
  ---------------------------------------------------
  free energy    TOTEN  =       614.30300367 eV

  energy without entropy =      614.30300367  energy(sigma->0) =      614.30300367


--------------------------------------------------------------------------------------------------------




--------------------------------------- Iteration      1(   3)  ---------------------------------------


     EDDAV:  cpu time   20.2055: real time   20.2566
 BZINTS: Fermi energy:  8.731719;276.000000 electrons
         Band energy:***********;  BLOECHL correction:  0.000000
       DOS:  cpu time    0.0062: real time    0.0062
    --------------------------------------------
      LOOP:  cpu time   20.2117: real time   20.2628

 eigenvalue-minimisations  : 11808
 total energy-change (2. order) :-0.8438408E+03  (-0.7314196E+03)
 number of electron     276.0000000 magnetization      70.8000000
 augmentation part      276.0000000 magnetization      70.8000000

 Free energy of the ion-electron system (eV)
  ---------------------------------------------------
  alpha Z        PSCENC =      1362.55286497
  Ewald energy   TEWEN  =    -25513.06237826
  -Hartree energ DENC   =    -10371.14386019
  -exchange      EXHF   =         0.00000000
  -V(xc)+E(xc)   XCENC  =      1375.27778129
  PAW double counting   =     30224.59406688   -31333.39571732
  entropy T*S    EENTRO =         0.00000000
  eigenvalues    EBANDS =     -3246.17759470
  atomic energy  EATOM  =     37271.81708986
  Solvation  Ediel_sol  =         0.00000000
  ---------------------------------------------------
  free energy    TOTEN  =      -229.53774748 eV

  energy without entropy =     -229.53774748  energy(sigma->0) =     -229.53774748


--------------------------------------------------------------------------------------------------------




--------------------------------------- Iteration      1(   4)  ---------------------------------------


     EDDAV:  cpu time   21.0978: real time   21.1513
 BZINTS: Fermi energy:  8.164794;276.000000 electrons
         Band energy:***********;  BLOECHL correction:  0.000000
       DOS:  cpu time    0.0060: real time    0.0061
    --------------------------------------------
      LOOP:  cpu time   21.1038: real time   21.1573

 eigenvalue-minimisations  : 12960
 total energy-change (2. order) :-0.6421459E+02  (-0.6341425E+02)
 number of electron     276.0000000 magnetization      70.8000000
 augmentation part      276.0000000 magnetization      70.8000000

 Free energy of the ion-electron system (eV)
  ---------------------------------------------------
  alpha Z        PSCENC =      1362.55286497
  Ewald energy   TEWEN  =    -25513.06237826
  -Hartree energ DENC   =    -10371.14386019
  -exchange      EXHF   =         0.00000000
  -V(xc)+E(xc)   XCENC  =      1375.27778129
  PAW double counting   =     30224.59406688   -31333.39571732
  entropy T*S    EENTRO =         0.00000000
  eigenvalues    EBANDS =     -3310.39218778
  atomic energy  EATOM  =     37271.81708986
  Solvation  Ediel_sol  =         0.00000000
  ---------------------------------------------------
  free energy    TOTEN  =      -293.75234055 eV

  energy without entropy =     -293.75234055  energy(sigma->0) =     -293.75234055


--------------------------------------------------------------------------------------------------------




--------------------------------------- Iteration      1(   5)  ---------------------------------------


     EDDAV:  cpu time   21.5683: real time   21.6231
 BZINTS: Fermi energy:  8.191360;276.000000 electrons
         Band energy:***********;  BLOECHL correction:  0.000000
       DOS:  cpu time    0.0061: real time    0.0061
    CHARGE:  cpu time    0.8227: real time    0.8248
    MIXING:  cpu time    0.0031: real time    0.0031
    --------------------------------------------
      LOOP:  cpu time   22.4002: real time   22.4572

 eigenvalue-minimisations  : 12732
 total energy-change (2. order) :-0.7589091E+00  (-0.7564470E+00)
 number of electron     275.9999985 magnetization      67.8179403
 augmentation part      108.0147572 magnetization      47.0432013

 Broyden mixing:
  rms(total) = 0.80925E+01    rms(broyden)= 0.80925E+01
  rms(prec ) = 0.88386E+01
  weight for this iteration     100.00

 Free energy of the ion-electron system (eV)
  ---------------------------------------------------
  alpha Z        PSCENC =      1362.55286497
  Ewald energy   TEWEN  =    -25513.06237826
  -Hartree energ DENC   =    -10371.14386019
  -exchange      EXHF   =         0.00000000
  -V(xc)+E(xc)   XCENC  =      1375.27778129
  PAW double counting   =     30224.59406688   -31333.39571732
  entropy T*S    EENTRO =         0.00000000
  eigenvalues    EBANDS =     -3311.15109688
  atomic energy  EATOM  =     37271.81708986
  Solvation  Ediel_sol  =         0.00000000
  ---------------------------------------------------
  free energy    TOTEN  =      -294.51124966 eV

  energy without entropy =     -294.51124966  energy(sigma->0) =     -294.51124966


--------------------------------------------------------------------------------------------------------




--------------------------------------- Iteration      1(   6)  ---------------------------------------


    POTLOK:  cpu time    0.1263: real time    0.1276
    SETDIJ:  cpu time    0.0154: real time    0.0154
     EDDAV:  cpu time   24.4180: real time   24.4798
 BZINTS: Fermi energy:  5.534674;276.000000 electrons
         Band energy:***********;  BLOECHL correction: -0.054528
       DOS:  cpu time    0.0503: real time    0.0504
    CHARGE:  cpu time    0.8426: real time    0.8447
    MIXING:  cpu time    0.0029: real time    0.0030
    --------------------------------------------
      LOOP:  cpu time   25.4554: real time   25.5210

 eigenvalue-minimisations  : 14808
 total energy-change (2. order) : 0.5923080E+02  (-0.2528654E+02)
 number of electron     275.9999977 magnetization      62.9807406
 augmentation part      120.7078744 magnetization      54.4159456

 Broyden mixing:
  rms(total) = 0.91207E+01    rms(broyden)= 0.91206E+01
  rms(prec ) = 0.97695E+01
  weight for this iteration     100.00

 eigenvalues of (default mixing * dielectric matrix)
  average eigenvalue GAMMA=   0.3186
  0.3186

 Free energy of the ion-electron system (eV)
  ---------------------------------------------------
  alpha Z        PSCENC =      1362.55286497
  Ewald energy   TEWEN  =    -25513.06237826
  -Hartree energ DENC   =     -9965.69485188
  -exchange      EXHF   =         0.00000000
  -V(xc)+E(xc)   XCENC  =      1376.63807626
  PAW double counting   =     31437.51029646   -32504.40151601
  entropy T*S    EENTRO =         0.00000000
  eigenvalues    EBANDS =     -3700.64003441
  atomic energy  EATOM  =     37271.81708986
  Solvation  Ediel_sol  =         0.00000000
  ---------------------------------------------------
  free energy    TOTEN  =      -235.28045301 eV

  energy without entropy =     -235.28045301  energy(sigma->0) =     -235.28045301


--------------------------------------------------------------------------------------------------------




--------------------------------------- Iteration      1(   7)  ---------------------------------------


    POTLOK:  cpu time    0.1223: real time    0.1227
    SETDIJ:  cpu time    0.0152: real time    0.0152
     EDDAV:  cpu time   21.0331: real time   21.0863
 BZINTS: Fermi energy:  7.078829;276.000000 electrons
         Band energy:***********;  BLOECHL correction: -0.036412
       DOS:  cpu time    0.0474: real time    0.0475
    CHARGE:  cpu time    0.8336: real time    0.8357
    MIXING:  cpu time    0.0030: real time    0.0030
    --------------------------------------------
      LOOP:  cpu time   22.0546: real time   22.1104

 eigenvalue-minimisations  : 12348
 total energy-change (2. order) : 0.2321800E+02  (-0.1140428E+02)
 number of electron     275.9999983 magnetization      58.7839781
 augmentation part      109.3473554 magnetization      40.3313184

 Broyden mixing:
  rms(total) = 0.43681E+01    rms(broyden)= 0.43680E+01
  rms(prec ) = 0.45278E+01
  weight for this iteration     100.00

 eigenvalues of (default mixing * dielectric matrix)
  average eigenvalue GAMMA=   0.6788
  1.0272  0.3304

 Free energy of the ion-electron system (eV)
  ---------------------------------------------------
  alpha Z        PSCENC =      1362.55286497
  Ewald energy   TEWEN  =    -25513.06237826
  -Hartree energ DENC   =    -10207.50658237
  -exchange      EXHF   =         0.00000000
  -V(xc)+E(xc)   XCENC  =      1372.38474502
  PAW double counting   =     32870.38335837   -33998.81140656
  entropy T*S    EENTRO =         0.00000000
  eigenvalues    EBANDS =     -3369.82014172
  atomic energy  EATOM  =     37271.81708986
  Solvation  Ediel_sol  =         0.00000000
  ---------------------------------------------------
  free energy    TOTEN  =      -212.06245069 eV

  energy without entropy =     -212.06245069  energy(sigma->0) =     -212.06245069


--------------------------------------------------------------------------------------------------------




--------------------------------------- Iteration      1(   8)  ---------------------------------------


    POTLOK:  cpu time    0.1240: real time    0.1250
    SETDIJ:  cpu time    0.0151: real time    0.0152
     EDDAV:  cpu time   20.1113: real time   20.1621
 BZINTS: Fermi energy:  6.445229;276.000000 electrons
         Band energy:***********;  BLOECHL correction: -0.034135
       DOS:  cpu time    0.0477: real time    0.0478
    CHARGE:  cpu time    0.8154: real time    0.8175
    MIXING:  cpu time    0.0029: real time    0.0029
    --------------------------------------------
      LOOP:  cpu time   21.1164: real time   21.1705

 eigenvalue-minimisations  : 12120
 total energy-change (2. order) :-0.6260484E+01  (-0.2141857E+01)
 number of electron     275.9999982 magnetization      51.9489627
 augmentation part      111.2680888 magnetization      35.0304149

 Broyden mixing:
  rms(total) = 0.26524E+01    rms(broyden)= 0.26524E+01
  rms(prec ) = 0.27126E+01
  weight for this iteration     100.00

 eigenvalues of (default mixing * dielectric matrix)
  average eigenvalue GAMMA=   1.0718
  2.2520  0.5798  0.3836

 Free energy of the ion-electron system (eV)
  ---------------------------------------------------
  alpha Z        PSCENC =      1362.55286497
  Ewald energy   TEWEN  =    -25513.06237826
  -Hartree energ DENC   =    -10072.24142878
  -exchange      EXHF   =         0.00000000
  -V(xc)+E(xc)   XCENC  =      1366.36809892
  PAW double counting   =     34229.37791448   -35369.53619021
  entropy T*S    EENTRO =         0.00000000
  eigenvalues    EBANDS =     -3493.59890561
  atomic energy  EATOM  =     37271.81708986
  Solvation  Ediel_sol  =         0.00000000
  ---------------------------------------------------
  free energy    TOTEN  =      -218.32293463 eV

  energy without entropy =     -218.32293463  energy(sigma->0) =     -218.32293463


--------------------------------------------------------------------------------------------------------




--------------------------------------- Iteration      1(   9)  ---------------------------------------


    POTLOK:  cpu time    0.1191: real time    0.1196
    SETDIJ:  cpu time    0.0150: real time    0.0151
     EDDAV:  cpu time   20.9194: real time   20.9723
 BZINTS: Fermi energy:  5.881540;276.000000 electrons
         Band energy:***********;  BLOECHL correction: -0.038346
       DOS:  cpu time    0.0488: real time    0.0489
    CHARGE:  cpu time    0.8340: real time    0.8361
    MIXING:  cpu time    0.0031: real time    0.0031
    --------------------------------------------
      LOOP:  cpu time   21.9394: real time   21.9950

 eigenvalue-minimisations  : 12624
 total energy-change (2. order) :-0.4178402E+01  (-0.8190285E+00)
 number of electron     275.9999980 magnetization      50.9196755
 augmentation part      114.1255175 magnetization      37.7865897

 Broyden mixing:
  rms(total) = 0.27045E+01    rms(broyden)= 0.27045E+01
  rms(prec ) = 0.28337E+01
  weight for this iteration     100.00

 eigenvalues of (default mixing * dielectric matrix)
  average eigenvalue GAMMA=   1.1015
  2.8503  0.8034  0.3762  0.3762

 Free energy of the ion-electron system (eV)
  ---------------------------------------------------
  alpha Z        PSCENC =      1362.55286497
  Ewald energy   TEWEN  =    -25513.06237826
  -Hartree energ DENC   =     -9933.64995491
  -exchange      EXHF   =         0.00000000
  -V(xc)+E(xc)   XCENC  =      1362.36678360
  PAW double counting   =     36514.42793444   -37683.39854486
  entropy T*S    EENTRO =         0.00000000
  eigenvalues    EBANDS =     -3603.55513121
  atomic energy  EATOM  =     37271.81708986
  Solvation  Ediel_sol  =         0.00000000
  ---------------------------------------------------
  free energy    TOTEN  =      -222.50133637 eV

  energy without entropy =     -222.50133637  energy(sigma->0) =     -222.50133637


--------------------------------------------------------------------------------------------------------




--------------------------------------- Iteration      1(  10)  ---------------------------------------


    POTLOK:  cpu time    0.1226: real time    0.1231
    SETDIJ:  cpu time    0.0151: real time    0.0152
     EDDAV:  cpu time   21.2236: real time   21.2775
 BZINTS: Fermi energy:  5.958720;276.000000 electrons
         Band energy:***********;  BLOECHL correction: -0.037110
       DOS:  cpu time    0.0488: real time    0.0489
    CHARGE:  cpu time    0.8390: real time    0.8411
    MIXING:  cpu time    0.0032: real time    0.0032
    --------------------------------------------
      LOOP:  cpu time   22.2524: real time   22.3090

 eigenvalue-minimisations  : 12564
 total energy-change (2. order) : 0.3312493E+00  (-0.2453857E+00)
 number of electron     275.9999980 magnetization      50.6156302
 augmentation part      113.4173366 magnetization      37.3032389

 Broyden mixing:
  rms(total) = 0.18580E+01    rms(broyden)= 0.18580E+01
  rms(prec ) = 0.19685E+01
  weight for this iteration     100.00

 eigenvalues of (default mixing * dielectric matrix)
  average eigenvalue GAMMA=   1.0182
  2.6178  0.3741  0.7704  0.6644  0.6644

 Free energy of the ion-electron system (eV)
  ---------------------------------------------------
  alpha Z        PSCENC =      1362.55286497
  Ewald energy   TEWEN  =    -25513.06237826
  -Hartree energ DENC   =     -9949.14477003
  -exchange      EXHF   =         0.00000000
  -V(xc)+E(xc)   XCENC  =      1360.91689490
  PAW double counting   =     36552.54887223   -37724.89585987
  entropy T*S    EENTRO =         0.00000000
  eigenvalues    EBANDS =     -3582.90280084
  atomic energy  EATOM  =     37271.81708986
  Solvation  Ediel_sol  =         0.00000000
  ---------------------------------------------------
  free energy    TOTEN  =      -222.17008704 eV

  energy without entropy =     -222.17008704  energy(sigma->0) =     -222.17008704


--------------------------------------------------------------------------------------------------------




--------------------------------------- Iteration      1(  11)  ---------------------------------------


    POTLOK:  cpu time    0.1233: real time    0.1246
    SETDIJ:  cpu time    0.0152: real time    0.0152
     EDDAV:  cpu time   23.5609: real time   23.6203
 BZINTS: Fermi energy:  6.019850;276.000000 electrons
         Band energy:***********;  BLOECHL correction: -0.033988
       DOS:  cpu time    0.0491: real time    0.0492
    CHARGE:  cpu time    0.8288: real time    0.8309
    MIXING:  cpu time    0.0032: real time    0.0032
    --------------------------------------------
      LOOP:  cpu time   24.5804: real time   24.6435

 eigenvalue-minimisations  : 14352
 total energy-change (2. order) : 0.5626761E+00  (-0.2269835E-01)
 number of electron     275.9999981 magnetization      49.3099199
 augmentation part      112.9989531 magnetization      35.6138603

 Broyden mixing:
  rms(total) = 0.12175E+01    rms(broyden)= 0.12175E+01
  rms(prec ) = 0.12907E+01
  weight for this iteration     100.00

 eigenvalues of (default mixing * dielectric matrix)
  average eigenvalue GAMMA=   1.0451
  2.5829  0.9706  0.9706  0.3792  0.8000  0.5671

 Free energy of the ion-electron system (eV)
  ---------------------------------------------------
  alpha Z        PSCENC =      1362.55286497
  Ewald energy   TEWEN  =    -25513.06237826
  -Hartree energ DENC   =     -9960.24842196
  -exchange      EXHF   =         0.00000000
  -V(xc)+E(xc)   XCENC  =      1360.24542673
  PAW double counting   =     36383.32438554   -37553.67312244
  entropy T*S    EENTRO =         0.00000000
  eigenvalues    EBANDS =     -3572.56325540
  atomic energy  EATOM  =     37271.81708986
  Solvation  Ediel_sol  =         0.00000000
  ---------------------------------------------------
  free energy    TOTEN  =      -221.60741097 eV

  energy without entropy =     -221.60741097  energy(sigma->0) =     -221.60741097


--------------------------------------------------------------------------------------------------------




--------------------------------------- Iteration      1(  12)  ---------------------------------------


    POTLOK:  cpu time    0.1229: real time    0.1233
    SETDIJ:  cpu time    0.0152: real time    0.0152
     EDDAV:  cpu time   24.7112: real time   24.7742
 BZINTS: Fermi energy:  6.079461;276.000000 electrons
         Band energy:***********;  BLOECHL correction: -0.033305
       DOS:  cpu time    0.0501: real time    0.0502
    CHARGE:  cpu time    0.8321: real time    0.8342
    MIXING:  cpu time    0.0034: real time    0.0034
    --------------------------------------------
      LOOP:  cpu time   25.7349: real time   25.8006

 eigenvalue-minimisations  : 15228
 total energy-change (2. order) : 0.2019773E+00  (-0.1951584E-01)
 number of electron     275.9999981 magnetization      46.8746621
 augmentation part      112.6789703 magnetization      33.0755624

 Broyden mixing:
  rms(total) = 0.84271E+00    rms(broyden)= 0.84271E+00
  rms(prec ) = 0.88366E+00
  weight for this iteration     100.00

 eigenvalues of (default mixing * dielectric matrix)
  average eigenvalue GAMMA=   1.0978
  2.1353  1.6882  1.4582  0.3778  0.7519  0.6365  0.6365

 Free energy of the ion-electron system (eV)
  ---------------------------------------------------
  alpha Z        PSCENC =      1362.55286497
  Ewald energy   TEWEN  =    -25513.06237826
  -Hartree energ DENC   =     -9973.21669108
  -exchange      EXHF   =         0.00000000
  -V(xc)+E(xc)   XCENC  =      1359.60066368
  PAW double counting   =     36268.11752762   -37437.41243703
  entropy T*S    EENTRO =         0.00000000
  eigenvalues    EBANDS =     -3559.80207347
  atomic energy  EATOM  =     37271.81708986
  Solvation  Ediel_sol  =         0.00000000
  ---------------------------------------------------
  free energy    TOTEN  =      -221.40543371 eV

  energy without entropy =     -221.40543371  energy(sigma->0) =     -221.40543371


--------------------------------------------------------------------------------------------------------




--------------------------------------- Iteration      1(  13)  ---------------------------------------


    POTLOK:  cpu time    0.1227: real time    0.1232
    SETDIJ:  cpu time    0.0150: real time    0.0151
     EDDAV:  cpu time   23.0280: real time   23.0862
 BZINTS: Fermi energy:  6.138945;276.000000 electrons
         Band energy:***********;  BLOECHL correction: -0.034421
       DOS:  cpu time    0.0506: real time    0.0508
    CHARGE:  cpu time    0.8364: real time    0.8386
    MIXING:  cpu time    0.0036: real time    0.0036
    --------------------------------------------
      LOOP:  cpu time   24.0564: real time   24.1173

 eigenvalue-minimisations  : 13932
 total energy-change (2. order) : 0.1419170E-02  (-0.1125428E-01)
 number of electron     275.9999981 magnetization      43.9898275
 augmentation part      112.4082507 magnetization      30.4373289

 Broyden mixing:
  rms(total) = 0.46641E+00    rms(broyden)= 0.46641E+00
  rms(prec ) = 0.48962E+00
  weight for this iteration     100.00

 eigenvalues of (default mixing * dielectric matrix)
  average eigenvalue GAMMA=   1.3932
  3.4303  3.4303  0.3781  0.9285  0.9285  0.7248  0.7248  0.6002

 Free energy of the ion-electron system (eV)
  ---------------------------------------------------
  alpha Z        PSCENC =      1362.55286497
  Ewald energy   TEWEN  =    -25513.06237826
  -Hartree energ DENC   =     -9991.20680212
  -exchange      EXHF   =         0.00000000
  -V(xc)+E(xc)   XCENC  =      1358.78063174
  PAW double counting   =     36039.56534445   -37205.82716141
  entropy T*S    EENTRO =         0.00000000
  eigenvalues    EBANDS =     -3544.02360377
  atomic energy  EATOM  =     37271.81708986
  Solvation  Ediel_sol  =         0.00000000
  ---------------------------------------------------
  free energy    TOTEN  =      -221.40401454 eV

  energy without entropy =     -221.40401454  energy(sigma->0) =     -221.40401454


--------------------------------------------------------------------------------------------------------




--------------------------------------- Iteration      1(  14)  ---------------------------------------


    POTLOK:  cpu time    0.1239: real time    0.1249
    SETDIJ:  cpu time    0.0152: real time    0.0152
     EDDAV:  cpu time   24.3248: real time   24.3864
 BZINTS: Fermi energy:  6.171086;276.000000 electrons
         Band energy:***********;  BLOECHL correction: -0.032769
       DOS:  cpu time    0.0502: real time    0.0503
    CHARGE:  cpu time    0.8179: real time    0.8200
    MIXING:  cpu time    0.0035: real time    0.0035
    --------------------------------------------
      LOOP:  cpu time   25.3355: real time   25.4004

 eigenvalue-minimisations  : 14964
 total energy-change (2. order) :-0.4467595E-01  (-0.1531393E-01)
 number of electron     275.9999981 magnetization      43.0744392
 augmentation part      112.2254773 magnetization      29.9053986

 Broyden mixing:
  rms(total) = 0.18142E+00    rms(broyden)= 0.18142E+00
  rms(prec ) = 0.18902E+00
  weight for this iteration     100.00

 eigenvalues of (default mixing * dielectric matrix)
  average eigenvalue GAMMA=   1.5049
  5.3515  2.7813  1.2190  0.3781  0.8404  0.8404  0.8833  0.6249  0.6249

 Free energy of the ion-electron system (eV)
  ---------------------------------------------------
  alpha Z        PSCENC =      1362.55286497
  Ewald energy   TEWEN  =    -25513.06237826
  -Hartree energ DENC   =    -10003.80244902
  -exchange      EXHF   =         0.00000000
  -V(xc)+E(xc)   XCENC  =      1357.69260026
  PAW double counting   =     35839.91598955   -37003.16036489
  entropy T*S    EENTRO =         0.00000000
  eigenvalues    EBANDS =     -3533.40204296
  atomic energy  EATOM  =     37271.81708986
  Solvation  Ediel_sol  =         0.00000000
  ---------------------------------------------------
  free energy    TOTEN  =      -221.44869050 eV

  energy without entropy =     -221.44869050  energy(sigma->0) =     -221.44869050


--------------------------------------------------------------------------------------------------------




--------------------------------------- Iteration      1(  15)  ---------------------------------------


    POTLOK:  cpu time    0.1192: real time    0.1195
    SETDIJ:  cpu time    0.0150: real time    0.0150
     EDDAV:  cpu time   20.9496: real time   21.0030
 BZINTS: Fermi energy:  6.157220;276.000000 electrons
         Band energy:***********;  BLOECHL correction: -0.032957
       DOS:  cpu time    0.0480: real time    0.0481
    CHARGE:  cpu time    0.8342: real time    0.8364
    MIXING:  cpu time    0.0040: real time    0.0040
    --------------------------------------------
      LOOP:  cpu time   21.9700: real time   22.0260

 eigenvalue-minimisations  : 12744
 total energy-change (2. order) :-0.1807539E-01  (-0.6208824E-02)
 number of electron     275.9999981 magnetization      42.6350121
 augmentation part      112.2763524 magnetization      29.6406911

 Broyden mixing:
  rms(total) = 0.14374E+00    rms(broyden)= 0.14374E+00
  rms(prec ) = 0.15224E+00
  weight for this iteration     100.00

 eigenvalues of (default mixing * dielectric matrix)
  average eigenvalue GAMMA=   1.5467
  6.1292  2.8515  1.3521  1.0730  0.3781  0.8503  0.8503  0.6935  0.6935  0.5956

 Free energy of the ion-electron system (eV)
  ---------------------------------------------------
  alpha Z        PSCENC =      1362.55286497
  Ewald energy   TEWEN  =    -25513.06237826
  -Hartree energ DENC   =    -10002.55674679
  -exchange      EXHF   =         0.00000000
  -V(xc)+E(xc)   XCENC  =      1357.20063833
  PAW double counting   =     35825.95215017   -36988.81695728
  entropy T*S    EENTRO =         0.00000000
  eigenvalues    EBANDS =     -3534.55342687
  atomic energy  EATOM  =     37271.81708986
  Solvation  Ediel_sol  =         0.00000000
  ---------------------------------------------------
  free energy    TOTEN  =      -221.46676588 eV

  energy without entropy =     -221.46676588  energy(sigma->0) =     -221.46676588


--------------------------------------------------------------------------------------------------------




--------------------------------------- Iteration      1(  16)  ---------------------------------------


    POTLOK:  cpu time    0.1241: real time    0.1245
    SETDIJ:  cpu time    0.0152: real time    0.0153
     EDDAV:  cpu time   23.5606: real time   23.6201
 BZINTS: Fermi energy:  6.178533;276.000000 electrons
         Band energy:***********;  BLOECHL correction: -0.032839
       DOS:  cpu time    0.0501: real time    0.0502
    CHARGE:  cpu time    0.8320: real time    0.8341
    MIXING:  cpu time    0.0039: real time    0.0039
    --------------------------------------------
      LOOP:  cpu time   24.5860: real time   24.6481

 eigenvalue-minimisations  : 14352
 total energy-change (2. order) : 0.5098362E-02  (-0.9082994E-03)
 number of electron     275.9999981 magnetization      42.4951979
 augmentation part      112.1855838 magnetization      29.5012901

 Broyden mixing:
  rms(total) = 0.37682E-01    rms(broyden)= 0.37682E-01
  rms(prec ) = 0.39405E-01
  weight for this iteration     100.00

 eigenvalues of (default mixing * dielectric matrix)
  average eigenvalue GAMMA=   1.5374
  6.3128  2.7836  1.3194  1.3194  1.1150  0.3781  0.8097  0.8097  0.7275  0.7275
  0.6089

 Free energy of the ion-electron system (eV)
  ---------------------------------------------------
  alpha Z        PSCENC =      1362.55286497
  Ewald energy   TEWEN  =    -25513.06237826
  -Hartree energ DENC   =    -10007.20665063
  -exchange      EXHF   =         0.00000000
  -V(xc)+E(xc)   XCENC  =      1357.08823693
  PAW double counting   =     35783.90621747   -36946.66837575
  entropy T*S    EENTRO =         0.00000000
  eigenvalues    EBANDS =     -3529.88867211
  atomic energy  EATOM  =     37271.81708986
  Solvation  Ediel_sol  =         0.00000000
  ---------------------------------------------------
  free energy    TOTEN  =      -221.46166752 eV

  energy without entropy =     -221.46166752  energy(sigma->0) =     -221.46166752


--------------------------------------------------------------------------------------------------------




--------------------------------------- Iteration      1(  17)  ---------------------------------------


    POTLOK:  cpu time    0.1230: real time    0.1239
    SETDIJ:  cpu time    0.0152: real time    0.0153
     EDDAV:  cpu time   21.0666: real time   21.1301
 BZINTS: Fermi energy:  6.179609;276.000000 electrons
         Band energy:***********;  BLOECHL correction: -0.032785
       DOS:  cpu time    0.0462: real time    0.0463
    CHARGE:  cpu time    0.8323: real time    0.8342
    MIXING:  cpu time    0.0042: real time    0.0042
    --------------------------------------------
      LOOP:  cpu time   22.0874: real time   22.1540

 eigenvalue-minimisations  : 12432
 total energy-change (2. order) :-0.6297018E-03  (-0.4834062E-03)
 number of electron     275.9999981 magnetization      42.3958690
 augmentation part      112.1809363 magnetization      29.4154161

 Broyden mixing:
  rms(total) = 0.19483E-01    rms(broyden)= 0.19483E-01
  rms(prec ) = 0.20087E-01
  weight for this iteration     100.00

 eigenvalues of (default mixing * dielectric matrix)
  average eigenvalue GAMMA=   1.5616
  6.5198  2.7653  2.4526  1.0704  1.0704  0.3781  0.8921  0.8921  0.7203  0.7203
  0.6042  0.6531

 Free energy of the ion-electron system (eV)
  ---------------------------------------------------
  alpha Z        PSCENC =      1362.55286497
  Ewald energy   TEWEN  =    -25513.06237826
  -Hartree energ DENC   =    -10006.89977493
  -exchange      EXHF   =         0.00000000
  -V(xc)+E(xc)   XCENC  =      1357.01983430
  PAW double counting   =     35804.05970163   -36967.38455208
  entropy T*S    EENTRO =         0.00000000
  eigenvalues    EBANDS =     -3529.56508271
  atomic energy  EATOM  =     37271.81708986
  Solvation  Ediel_sol  =         0.00000000
  ---------------------------------------------------
  free energy    TOTEN  =      -221.46229722 eV

  energy without entropy =     -221.46229722  energy(sigma->0) =     -221.46229722


--------------------------------------------------------------------------------------------------------




--------------------------------------- Iteration      1(  18)  ---------------------------------------


    POTLOK:  cpu time    0.1226: real time    0.1232
    SETDIJ:  cpu time    0.0151: real time    0.0151
     EDDAV:  cpu time   23.3161: real time   23.3785
 BZINTS: Fermi energy:  6.180116;276.000000 electrons
         Band energy:***********;  BLOECHL correction: -0.032909
       DOS:  cpu time    0.0501: real time    0.0502
    CHARGE:  cpu time    0.8343: real time    0.8365
    MIXING:  cpu time    0.0048: real time    0.0048
    --------------------------------------------
      LOOP:  cpu time   24.3430: real time   24.4082

 eigenvalue-minimisations  : 14148
 total energy-change (2. order) :-0.2351638E-03  (-0.2456634E-04)
 number of electron     275.9999981 magnetization      42.3446640
 augmentation part      112.1758467 magnetization      29.3821190

 Broyden mixing:
  rms(total) = 0.86161E-02    rms(broyden)= 0.86159E-02
  rms(prec ) = 0.89664E-02
  weight for this iteration     100.00

 eigenvalues of (default mixing * dielectric matrix)
  average eigenvalue GAMMA=   1.5331
  6.6525  2.8420  2.4481  1.1480  1.1480  0.9584  0.9584  0.3781  0.7414  0.7414
  0.6885  0.6125  0.6125

 Free energy of the ion-electron system (eV)
  ---------------------------------------------------
  alpha Z        PSCENC =      1362.55286497
  Ewald energy   TEWEN  =    -25513.06237826
  -Hartree energ DENC   =    -10007.20743415
  -exchange      EXHF   =         0.00000000
  -V(xc)+E(xc)   XCENC  =      1356.97092867
  PAW double counting   =     35801.87982844   -36965.24808635
  entropy T*S    EENTRO =         0.00000000
  eigenvalues    EBANDS =     -3529.16534556
  atomic energy  EATOM  =     37271.81708986
  Solvation  Ediel_sol  =         0.00000000
  ---------------------------------------------------
  free energy    TOTEN  =      -221.46253238 eV

  energy without entropy =     -221.46253238  energy(sigma->0) =     -221.46253238


--------------------------------------------------------------------------------------------------------




--------------------------------------- Iteration      1(  19)  ---------------------------------------


    POTLOK:  cpu time    0.1238: real time    0.1242
    SETDIJ:  cpu time    0.0155: real time    0.0155
     EDDAV:  cpu time   22.7970: real time   22.8546
 BZINTS: Fermi energy:  6.181088;276.000000 electrons
         Band energy:***********;  BLOECHL correction: -0.032968
       DOS:  cpu time    0.0505: real time    0.0506
    CHARGE:  cpu time    0.8278: real time    0.8299
    MIXING:  cpu time    0.0045: real time    0.0045
    --------------------------------------------
      LOOP:  cpu time   23.8191: real time   23.8794

 eigenvalue-minimisations  : 13740
 total energy-change (2. order) :-0.5693721E-04  (-0.1035085E-04)
 number of electron     275.9999981 magnetization      42.3359105
 augmentation part      112.1716667 magnetization      29.3817265

 Broyden mixing:
  rms(total) = 0.17613E-02    rms(broyden)= 0.17611E-02
  rms(prec ) = 0.18775E-02
  weight for this iteration     100.00

 eigenvalues of (default mixing * dielectric matrix)
  average eigenvalue GAMMA=   1.5159
  6.7171  2.8566  2.4223  1.2984  1.2984  0.9900  0.9900  0.3781  0.7768  0.7768
  0.7448  0.7448  0.6138  0.6138

 Free energy of the ion-electron system (eV)
  ---------------------------------------------------
  alpha Z        PSCENC =      1362.55286497
  Ewald energy   TEWEN  =    -25513.06237826
  -Hartree energ DENC   =    -10007.55473773
  -exchange      EXHF   =         0.00000000
  -V(xc)+E(xc)   XCENC  =      1356.95098594
  PAW double counting   =     35797.41384992   -36960.72739296
  entropy T*S    EENTRO =         0.00000000
  eigenvalues    EBANDS =     -3528.85287106
  atomic energy  EATOM  =     37271.81708986
  Solvation  Ediel_sol  =         0.00000000
  ---------------------------------------------------
  free energy    TOTEN  =      -221.46258932 eV

  energy without entropy =     -221.46258932  energy(sigma->0) =     -221.46258932


--------------------------------------------------------------------------------------------------------




--------------------------------------- Iteration      1(  20)  ---------------------------------------


    POTLOK:  cpu time    0.1234: real time    0.1238
    SETDIJ:  cpu time    0.0151: real time    0.0151
     EDDAV:  cpu time   20.4571: real time   20.5107
 BZINTS: Fermi energy:  6.181467;276.000000 electrons
         Band energy:***********;  BLOECHL correction: -0.032975
       DOS:  cpu time    0.0477: real time    0.0478
    CHARGE:  cpu time    0.8266: real time    0.8288
    MIXING:  cpu time    0.0050: real time    0.0050
    --------------------------------------------
      LOOP:  cpu time   21.4748: real time   21.5311

 eigenvalue-minimisations  : 12468
 total energy-change (2. order) :-0.8656214E-05  (-0.2144590E-05)
 number of electron     275.9999981 magnetization      42.3322869
 augmentation part      112.1708731 magnetization      29.3796219

 Broyden mixing:
  rms(total) = 0.87628E-03    rms(broyden)= 0.87622E-03
  rms(prec ) = 0.89617E-03
  weight for this iteration     100.00

 eigenvalues of (default mixing * dielectric matrix)
  average eigenvalue GAMMA=   1.5131
  6.7491  2.9663  2.3973  1.8780  1.0838  1.0838  1.0080  1.0080  0.3781  0.7390
  0.7390  0.6051  0.6928  0.6839  0.6839

 Free energy of the ion-electron system (eV)
  ---------------------------------------------------
  alpha Z        PSCENC =      1362.55286497
  Ewald energy   TEWEN  =    -25513.06237826
  -Hartree energ DENC   =    -10007.64282849
  -exchange      EXHF   =         0.00000000
  -V(xc)+E(xc)   XCENC  =      1356.94772934
  PAW double counting   =     35797.23729729   -36960.55660766
  entropy T*S    EENTRO =         0.00000000
  eigenvalues    EBANDS =     -3528.75576503
  atomic energy  EATOM  =     37271.81708986
  Solvation  Ediel_sol  =         0.00000000
  ---------------------------------------------------
  free energy    TOTEN  =      -221.46259798 eV

  energy without entropy =     -221.46259798  energy(sigma->0) =     -221.46259798


--------------------------------------------------------------------------------------------------------




--------------------------------------- Iteration      1(  21)  ---------------------------------------


    POTLOK:  cpu time    0.1223: real time    0.1230
    SETDIJ:  cpu time    0.0152: real time    0.0152
     EDDAV:  cpu time   21.1982: real time   21.2518
 BZINTS: Fermi energy:  6.181814;276.000000 electrons
         Band energy:***********;  BLOECHL correction: -0.032973
       DOS:  cpu time    0.0478: real time    0.0479
    CHARGE:  cpu time    0.8336: real time    0.8356
    MIXING:  cpu time    0.0047: real time    0.0049
    --------------------------------------------
      LOOP:  cpu time   22.2218: real time   22.2785

 eigenvalue-minimisations  : 12660
 total energy-change (2. order) : 0.1475513E-05  (-0.2272239E-06)
 number of electron     275.9999981 magnetization      42.3342739
 augmentation part      112.1697107 magnetization      29.3814153

 Broyden mixing:
  rms(total) = 0.11259E-02    rms(broyden)= 0.11259E-02
  rms(prec ) = 0.11936E-02
  weight for this iteration     100.00

 eigenvalues of (default mixing * dielectric matrix)
  average eigenvalue GAMMA=   1.5049
  6.7500  3.0092  2.4368  2.2062  1.1923  1.1923  0.9948  0.9948  0.3781  0.7803
  0.7803  0.7333  0.7333  0.6677  0.6147  0.6147

 Free energy of the ion-electron system (eV)
  ---------------------------------------------------
  alpha Z        PSCENC =      1362.55286497
  Ewald energy   TEWEN  =    -25513.06237826
  -Hartree energ DENC   =    -10007.71331462
  -exchange      EXHF   =         0.00000000
  -V(xc)+E(xc)   XCENC  =      1356.94829282
  PAW double counting   =     35796.89331832   -36960.22161557
  entropy T*S    EENTRO =         0.00000000
  eigenvalues    EBANDS =     -3528.67685402
  atomic energy  EATOM  =     37271.81708986
  Solvation  Ediel_sol  =         0.00000000
  ---------------------------------------------------
  free energy    TOTEN  =      -221.46259650 eV

  energy without entropy =     -221.46259650  energy(sigma->0) =     -221.46259650


--------------------------------------------------------------------------------------------------------




--------------------------------------- Iteration      1(  22)  ---------------------------------------


    POTLOK:  cpu time    0.1220: real time    0.1224
    SETDIJ:  cpu time    0.0152: real time    0.0152
     EDDAV:  cpu time   18.9051: real time   18.9529
 BZINTS: Fermi energy:  6.181659;276.000000 electrons
         Band energy:***********;  BLOECHL correction: -0.032974
       DOS:  cpu time    0.0502: real time    0.0503
    CHARGE:  cpu time    0.8332: real time    0.8352
    MIXING:  cpu time    0.0050: real time    0.0050
    --------------------------------------------
      LOOP:  cpu time   19.9306: real time   19.9809

 eigenvalue-minimisations  : 10716
 total energy-change (2. order) :-0.1174667E-05  (-0.1105252E-06)
 number of electron     275.9999981 magnetization      42.3364307
 augmentation part      112.1703824 magnetization      29.3836645

 Broyden mixing:
  rms(total) = 0.51475E-03    rms(broyden)= 0.51475E-03
  rms(prec ) = 0.54269E-03
  weight for this iteration     100.00

 eigenvalues of (default mixing * dielectric matrix)
  average eigenvalue GAMMA=   1.4869
  6.7339  2.9847  2.6448  2.1583  1.3462  1.0200  1.0200  0.3781  1.0767  0.8596
  0.8596  0.8481  0.7415  0.7415  0.6088  0.6280  0.6280

 Free energy of the ion-electron system (eV)
  ---------------------------------------------------
  alpha Z        PSCENC =      1362.55286497
  Ewald energy   TEWEN  =    -25513.06237826
  -Hartree energ DENC   =    -10007.67845529
  -exchange      EXHF   =         0.00000000
  -V(xc)+E(xc)   XCENC  =      1356.94849256
  PAW double counting   =     35797.16554657   -36960.49642469
  entropy T*S    EENTRO =         0.00000000
  eigenvalues    EBANDS =     -3528.70933340
  atomic energy  EATOM  =     37271.81708986
  Solvation  Ediel_sol  =         0.00000000
  ---------------------------------------------------
  free energy    TOTEN  =      -221.46259768 eV

  energy without entropy =     -221.46259768  energy(sigma->0) =     -221.46259768


--------------------------------------------------------------------------------------------------------




--------------------------------------- Iteration      1(  23)  ---------------------------------------


    POTLOK:  cpu time    0.1224: real time    0.1236
    SETDIJ:  cpu time    0.0151: real time    0.0152
     EDDAV:  cpu time   17.9593: real time   18.0048
 BZINTS: Fermi energy:  6.181572;276.000000 electrons
         Band energy:***********;  BLOECHL correction: -0.032974
       DOS:  cpu time    0.0490: real time    0.0491
    CHARGE:  cpu time    0.8414: real time    0.8435
    MIXING:  cpu time    0.0056: real time    0.0056
    --------------------------------------------
      LOOP:  cpu time   18.9928: real time   19.0418

 eigenvalue-minimisations  :  9780
 total energy-change (2. order) : 0.1099397E-06  (-0.2879032E-07)
 number of electron     275.9999981 magnetization      42.3368304
 augmentation part      112.1707565 magnetization      29.3839229

 Broyden mixing:
  rms(total) = 0.75319E-04    rms(broyden)= 0.75312E-04
  rms(prec ) = 0.77613E-04
  weight for this iteration     100.00

 eigenvalues of (default mixing * dielectric matrix)
  average eigenvalue GAMMA=   1.4851
  6.7311  3.0118  2.7064  2.2679  1.4059  1.4059  0.3781  1.0231  1.0231  0.9585
  0.9585  0.7437  0.7437  0.7632  0.7152  0.6591  0.6181  0.6181

 Free energy of the ion-electron system (eV)
  ---------------------------------------------------
  alpha Z        PSCENC =      1362.55286497
  Ewald energy   TEWEN  =    -25513.06237826
  -Hartree energ DENC   =    -10007.65624331
  -exchange      EXHF   =         0.00000000
  -V(xc)+E(xc)   XCENC  =      1356.94918669
  PAW double counting   =     35797.37396427   -36960.70758475
  entropy T*S    EENTRO =         0.00000000
  eigenvalues    EBANDS =     -3528.72949704
  atomic energy  EATOM  =     37271.81708986
  Solvation  Ediel_sol  =         0.00000000
  ---------------------------------------------------
  free energy    TOTEN  =      -221.46259757 eV

  energy without entropy =     -221.46259757  energy(sigma->0) =     -221.46259757


--------------------------------------------------------------------------------------------------------




--------------------------------------- Iteration      1(  24)  ---------------------------------------


    POTLOK:  cpu time    0.1227: real time    0.1238
    SETDIJ:  cpu time    0.0150: real time    0.0150
     EDDAV:  cpu time   13.4763: real time   13.5103
 BZINTS: Fermi energy:  6.181580;276.000000 electrons
         Band energy:***********;  BLOECHL correction: -0.032974
       DOS:  cpu time    0.0440: real time    0.0441
    CHARGE:  cpu time    0.8326: real time    0.8347
    MIXING:  cpu time    0.0053: real time    0.0053
    --------------------------------------------
      LOOP:  cpu time   14.4959: real time   14.5332

 eigenvalue-minimisations  :  6456
 total energy-change (2. order) : 0.5539841E-06  (-0.8355790E-08)
 number of electron     275.9999981 magnetization      42.3368993
 augmentation part      112.1707076 magnetization      29.3839029

 Broyden mixing:
  rms(total) = 0.46810E-04    rms(broyden)= 0.46809E-04
  rms(prec ) = 0.49167E-04
  weight for this iteration     100.00

 eigenvalues of (default mixing * dielectric matrix)
[...]
  0.000  -0.002   0.000   0.000  -0.001  -0.000  -0.000  -0.000  -0.006   0.000   0.000   0.000   0.000   0.009   0.000  -0.000
 total augmentation occupancy for first ion, spin component:           2
 -0.003   0.000  -0.000  -0.010  -0.000   0.000   0.002   0.001  -0.000   0.000   0.000  -0.003  -0.002   0.000  -0.000  -0.000
 -0.000  -0.003   0.000   0.000  -0.010  -0.000  -0.000   0.000  -0.001   0.000   0.000  -0.000  -0.000   0.002  -0.000  -0.000
  0.000   0.000  -0.003  -0.000   0.000  -0.010   0.000  -0.000   0.000   0.001  -0.002  -0.000   0.000  -0.000  -0.002   0.003
 -0.010   0.000  -0.000   0.021  -0.000   0.000  -0.085  -0.050  -0.000   0.002   0.013   0.049   0.032   0.000  -0.001  -0.008
  0.000  -0.010  -0.000   0.000   0.017  -0.000   0.000   0.000   0.076  -0.000  -0.000  -0.000   0.000  -0.043   0.000   0.000
  0.000   0.000  -0.010   0.000  -0.000   0.021   0.013  -0.002  -0.000  -0.050   0.085  -0.008   0.001   0.000   0.032  -0.049
  0.002   0.000   0.000  -0.085  -0.000   0.013   4.295   0.577  -0.000  -0.179  -0.000  -2.428  -0.471  -0.000   0.166   0.002
  0.001  -0.000  -0.000  -0.050   0.000  -0.002   0.577   5.021   0.000   0.000  -0.179  -0.469  -3.026  -0.000   0.003   0.166
 -0.000  -0.001   0.000  -0.000   0.076  -0.000  -0.000   0.000   4.387   0.000  -0.000   0.000  -0.000  -2.383  -0.000   0.000
  0.000  -0.000   0.001   0.002   0.000  -0.050  -0.179  -0.000   0.000   5.021  -0.577   0.166  -0.003  -0.000  -3.026   0.469
  0.000   0.000  -0.002   0.013  -0.000   0.085   0.000  -0.179  -0.000  -0.577   4.295  -0.002   0.166   0.000   0.471  -2.428
 -0.003  -0.000  -0.000   0.049   0.000  -0.008  -2.428  -0.469   0.000   0.166  -0.002   1.294   0.332  -0.000  -0.129  -0.000
 -0.002  -0.000   0.000   0.032  -0.000   0.001  -0.471  -3.026  -0.000  -0.003   0.166   0.332   1.751   0.000  -0.000  -0.129
  0.000   0.002  -0.000   0.000  -0.043   0.000  -0.000  -0.000  -2.383  -0.000   0.000   0.000   0.000   1.231   0.000  -0.000
 -0.000   0.000  -0.002  -0.001  -0.000   0.032   0.166   0.003  -0.000  -3.026   0.471  -0.129  -0.000   0.000   1.751  -0.332
 -0.000  -0.000   0.003  -0.008   0.000  -0.049   0.002   0.166   0.000   0.469  -2.428   0.000  -0.129  -0.000  -0.332   1.294
  0.000   0.000   0.000   0.000   0.001   0.000  -0.000   0.000   0.044   0.000  -0.000  -0.000  -0.000  -0.022   0.000   0.000
  0.000   0.000   0.000  -0.000   0.001  -0.000  -0.000  -0.000   0.007   0.000  -0.000  -0.000   0.000  -0.005  -0.000   0.000


------------------------ aborting loop because EDIFF is reached ----------------------------------------


 


 total charge     
 
# of ion       s       p       d       tot
------------------------------------------
    1        0.284   6.340   5.852  12.476
    2        0.284   6.340   5.854  12.478
    3        0.284   6.340   5.862  12.486
    4        0.284   6.340   5.852  12.475
    5        0.283   6.340   5.854  12.478
    6        0.284   6.340   5.865  12.489
    7        0.284   6.340   5.851  12.474
    8        0.284   6.340   5.853  12.477
    9        0.283   6.340   5.854  12.477
   10        0.283   6.340   5.868  12.492
   11        0.283   6.340   5.865  12.489
   12        0.283   6.340   5.857  12.480
   13        1.568   3.416   0.000   4.984
   14        1.568   3.416   0.000   4.984
   15        1.568   3.416   0.000   4.984
   16        1.568   3.417   0.000   4.985
   17        1.568   3.417   0.000   4.985
   18        1.568   3.416   0.000   4.984
   19        1.567   3.404   0.000   4.971
   20        1.567   3.403   0.000   4.970
   21        1.567   3.405   0.000   4.971
   22        1.567   3.405   0.000   4.971
   23        1.567   3.405   0.000   4.971
   24        1.567   3.405   0.000   4.971
   25        1.568   3.417   0.000   4.986
   26        1.568   3.417   0.000   4.985
   27        1.568   3.419   0.000   4.987
   28        1.568   3.420   0.000   4.988
   29        1.568   3.419   0.000   4.988
   30        1.568   3.419   0.000   4.987
--------------------------------------------------
tot         31.619 137.516  70.288 239.422
 


 magnetization (x)
 
# of ion       s       p       d       tot
------------------------------------------
    1        0.024   0.036   3.141   3.201
    2        0.024   0.036   3.138   3.198
    3        0.025   0.036   3.135   3.195
    4        0.025   0.036   3.140   3.201
    5        0.025   0.036   3.140   3.201
    6        0.025   0.036   3.132   3.193
    7        0.024   0.036   3.125   3.185
    8        0.024   0.036   3.122   3.183
    9        0.025   0.036   3.123   3.183
   10        0.025   0.036   3.116   3.177
   11        0.025   0.036   3.119   3.179
   12        0.025   0.036   3.123   3.183
   13        0.020   0.139   0.000   0.160
   14        0.020   0.139   0.000   0.159
   15        0.020   0.139   0.000   0.159
   16        0.020   0.140   0.000   0.160
   17        0.020   0.140   0.000   0.161
   18        0.020   0.139   0.000   0.160
   19        0.021   0.143   0.000   0.165
   20        0.021   0.143   0.000   0.164
   21        0.021   0.144   0.000   0.165
   22        0.021   0.144   0.000   0.165
   23        0.021   0.144   0.000   0.165
   24        0.021   0.144   0.000   0.166
   25        0.020   0.136   0.000   0.156
   26        0.020   0.135   0.000   0.155
   27        0.020   0.136   0.000   0.157
   28        0.020   0.137   0.000   0.158
   29        0.020   0.137   0.000   0.157
   30        0.020   0.137   0.000   0.157
--------------------------------------------------
tot          0.668   2.948  37.554  41.170
 
    CHARGE:  cpu time    0.8310: real time    0.8331
    FORLOC:  cpu time    0.0145: real time    0.0146
    FORNL :  cpu time    5.6475: real time    5.6618
    STRESS:  cpu time   15.9437: real time   15.9839
    FORCOR:  cpu time    0.1319: real time    0.1323
    FORHAR:  cpu time    0.0251: real time    0.0252
    MIXING:  cpu time    0.0056: real time    0.0057
    OFIELD:  cpu time    0.0001: real time    0.0001

  FORCE on cell =-STRESS in cart. coord.  units (eV):
  Direction    XX          YY          ZZ          XY          YZ          ZX
  --------------------------------------------------------------------------------------
  Alpha Z  1362.55286  1362.55286  1362.55286
  Ewald   -8201.75422 -8201.75360 -9109.63806     0.00000     0.00002    -0.00000
  Hartree  3503.88567  3503.88552  2999.88138    -0.00000     0.00001    -0.00000
  E(xc)   -1615.80027 -1615.80031 -1617.36427    -0.00003     0.00000    -0.00000
  Local    -165.31491  -165.31493  1230.52184    -0.00030    -0.00003     0.00000
  n-local  -743.04943  -741.93962  -744.51898    -4.16727     0.49358     0.11403
  augment  1844.63385  1844.63386  1846.55607     0.00028     0.00000    -0.00000
  Kinetic  4007.19952  4009.29576  4025.05794     7.65467    -1.99017    -5.04396
  Fock        0.00000     0.00000     0.00000     0.00000     0.00000     0.00000
  -------------------------------------------------------------------------------------
  Total      -6.04370    -6.04370    -6.95121     0.00000    -0.00000    -0.00000
  in kB     -32.05590   -32.05589   -36.86939     0.00000    -0.00000    -0.00000
  external pressure =      -33.66 kB  Pullay stress =        0.00 kB


 VOLUME and BASIS-vectors are now :
 -----------------------------------------------------------------------------
  energy-cutoff  :      800.00
  volume of cell :      302.07
      direct lattice vectors                 reciprocal lattice vectors
     5.035100000  0.000000000  0.000000000     0.198605787  0.114665118  0.000000000
    -2.517550000  4.360524000  0.000000000     0.000000000  0.229330236  0.000000000
     0.000000000  0.000000000 13.758100000     0.000000000  0.000000000  0.072684455

  length of vectors
     5.035100000  5.035099558 13.758100000     0.229330216  0.229330236  0.072684455


 FORCES acting on ions
    electron-ion (+dipol)            ewald-force                    non-local-force                 convergence-correction
 -----------------------------------------------------------------------------------------------
   0.156E-03 0.366E-03 -.126E+03   -.101E-02 0.523E-03 0.128E+03   0.694E-17 0.217E-17 -.289E+01   -.750E-08 0.425E-08 -.389E-05
   -.402E-03 0.580E-03 0.126E+03   0.101E-02 -.523E-03 -.128E+03   -.173E-17 -.867E-18 0.289E+01   0.100E-07 -.482E-08 0.389E-05
   -.135E-03 0.533E-03 -.126E+03   0.314E-02 -.187E-02 0.128E+03   0.607E-17 -.304E-17 -.289E+01   0.173E-06 -.101E-06 0.381E-05
   -.328E-03 0.645E-03 -.126E+03   -.220E-02 0.121E-02 0.128E+03   0.434E-17 -.260E-17 -.289E+01   -.163E-06 0.933E-07 0.644E-05
   0.817E-04 0.301E-03 0.126E+03   0.220E-02 -.121E-02 -.128E+03   0.217E-17 0.130E-17 0.289E+01   0.165E-06 -.939E-07 -.643E-05
   -.111E-03 0.412E-03 0.126E+03   -.314E-02 0.187E-02 -.128E+03   -.173E-17 0.217E-17 0.289E+01   -.170E-06 0.100E-06 -.381E-05
   0.566E-03 -.105E-02 0.126E+03   0.964E-03 -.523E-03 -.128E+03   -.607E-17 0.867E-18 0.289E+01   0.111E-07 -.760E-08 0.389E-05
   0.104E-02 -.127E-02 -.126E+03   -.964E-03 0.523E-03 0.128E+03   0.867E-18 0.217E-17 -.289E+01   -.586E-08 0.254E-08 -.389E-05
   0.105E-02 -.133E-02 0.126E+03   0.215E-02 -.121E-02 -.128E+03   0.802E-17 0.130E-17 0.289E+01   0.166E-06 -.976E-07 -.644E-05
   0.750E-03 -.110E-02 -.126E+03   0.319E-02 -.187E-02 0.128E+03   0.889E-17 -.173E-17 -.289E+01   0.175E-06 -.101E-06 0.381E-05
   0.856E-03 -.121E-02 0.126E+03   -.319E-02 0.187E-02 -.128E+03   -.455E-17 0.824E-17 0.289E+01   -.170E-06 0.963E-07 -.381E-05
   0.557E-03 -.989E-03 -.126E+03   -.215E-02 0.121E-02 0.128E+03   -.651E-17 0.217E-17 -.289E+01   -.161E-06 0.925E-07 0.643E-05
   -.424E+02 -.134E-02 0.216E-03   0.418E+02 0.106E-02 -.470E-03   0.672E+00 0.962E-18 0.618E-17   -.109E-04 0.400E-07 -.387E-08
   0.424E+02 -.869E-04 -.337E-03   -.418E+02 -.106E-02 0.470E-03   -.672E+00 0.157E-17 0.840E-17   0.109E-04 -.433E-07 0.177E-08
   -.424E+02 -.320E-02 -.584E-02   0.418E+02 0.570E-03 -.997E-03   0.672E+00 0.298E-17 0.173E-17   -.109E-04 -.360E-07 -.233E-05
   -.424E+02 0.240E-02 0.544E-02   0.418E+02 -.163E-02 0.147E-02   0.672E+00 -.119E-17 -.102E-16   -.108E-04 -.887E-08 0.233E-05
   0.424E+02 -.383E-02 -.556E-02   -.418E+02 0.163E-02 -.147E-02   -.672E+00 -.908E-18 0.271E-17   0.108E-04 0.555E-08 -.233E-05
   0.424E+02 0.177E-02 0.572E-02   -.418E+02 -.570E-03 0.997E-03   -.672E+00 0.287E-17 0.585E-17   0.109E-04 0.326E-07 0.233E-05
   0.212E+02 -.367E+02 -.308E-03   -.209E+02 0.362E+02 0.438E-03   -.336E+00 0.582E+00 -.520E-17   0.548E-05 -.941E-05 0.177E-08
   -.212E+02 0.367E+02 0.195E-03   0.209E+02 -.362E+02 -.438E-03   0.336E+00 -.582E+00 0.607E-17   -.548E-05 0.942E-05 -.378E-08
   0.212E+02 -.367E+02 -.554E-02   -.209E+02 0.362E+02 -.150E-02   -.336E+00 0.582E+00 0.434E-17   0.542E-05 -.939E-05 -.233E-05
   0.212E+02 -.367E+02 0.575E-02   -.209E+02 0.362E+02 0.964E-03   -.336E+00 0.582E+00 0.130E-16   0.541E-05 -.945E-05 0.233E-05
   -.212E+02 0.367E+02 -.586E-02   0.209E+02 -.362E+02 -.964E-03   0.336E+00 -.582E+00 -.434E-17   -.541E-05 0.945E-05 -.233E-05
   -.212E+02 0.367E+02 0.542E-02   0.209E+02 -.362E+02 0.150E-02   0.336E+00 -.582E+00 -.347E-17   -.541E-05 0.939E-05 0.233E-05
   0.212E+02 0.367E+02 0.939E-04   -.209E+02 -.362E+02 0.322E-04   -.336E+00 -.582E+00 -.477E-17   0.541E-05 0.937E-05 0.205E-08
   -.212E+02 -.367E+02 0.144E-03   0.209E+02 0.362E+02 -.322E-04   0.336E+00 0.582E+00 -.434E-18   -.541E-05 -.938E-05 0.196E-08
   0.212E+02 0.367E+02 -.409E-02   -.209E+02 -.362E+02 -.303E-02   -.336E+00 -.582E+00 -.304E-17   0.551E-05 0.941E-05 -.233E-05
   -.212E+02 -.367E+02 -.403E-02   0.209E+02 0.362E+02 -.310E-02   0.336E+00 0.582E+00 0.130E-17   -.540E-05 -.947E-05 -.233E-05
   0.212E+02 0.367E+02 0.427E-02   -.209E+02 -.362E+02 0.310E-02   -.336E+00 -.582E+00 -.867E-17   0.540E-05 0.947E-05 0.233E-05
   -.212E+02 -.367E+02 0.432E-02   0.209E+02 0.362E+02 0.303E-02   0.336E+00 0.582E+00 0.434E-17   -.550E-05 -.941E-05 0.233E-05
 -----------------------------------------------------------------------------------------------
   0.150E-01 -.165E-01 -.111E-04   -.995E-13 -.995E-13 -.192E-12   -.111E-15 0.222E-15 0.902E-15   0.390E-07 -.325E-07 -.378E-09
 
 
 POSITION                                       TOTAL-FORCE (eV/Angst)
 -----------------------------------------------------------------------------------
      0.00000      0.00000      4.88853        -0.000000     -0.000000     -0.928094
      0.00000      0.00000      8.86957        -0.000000     -0.000000      0.928094
     -0.00000      2.90702      0.30250        -0.000000     -0.000000     -0.928094
      2.51755      1.45351      9.47456        -0.000000     -0.000000     -0.928094
     -0.00000      2.90702      4.28354        -0.000000     -0.000000      0.928094
      2.51755      1.45351     13.45560        -0.000000     -0.000000      0.928094
      0.00000      0.00000      1.99052        -0.000000     -0.000000      0.928094
      0.00000      0.00000     11.76758        -0.000000     -0.000000     -0.928094
     -0.00000      2.90702     11.16259        -0.000000     -0.000000      0.928094
     -0.00000      2.90702      7.18155        -0.000000     -0.000000     -0.928094
      2.51755      1.45351      6.57655        -0.000000     -0.000000      0.928094
      2.51755      1.45351      2.59551        -0.000000     -0.000000     -0.928094
      1.54165      0.00000      3.43953         0.079727     -0.000000     -0.000000
      3.49345      0.00000     10.31858        -0.079727     -0.000000     -0.000000
      1.54164      2.90702     12.61160         0.079727     -0.000000     -0.000000
      4.05920      1.45351      8.02555         0.079727     -0.000000     -0.000000
     -1.54165      2.90702      5.73255        -0.079727     -0.000000     -0.000000
      0.97591      1.45351      1.14650        -0.079727     -0.000000     -0.000000
     -0.77082      1.33511      3.43953        -0.039864      0.069046     -0.000000
     -1.74673      3.02542     10.31858         0.039864     -0.069046     -0.000000
     -0.77083      4.24212     12.61160        -0.039864      0.069046     -0.000000
      1.74673      2.78861      8.02555        -0.039864      0.069046      0.000000
      0.77082      1.57191      5.73255         0.039864     -0.069046     -0.000000
      3.28838      0.11840      1.14650         0.039864     -0.069046      0.000000
      1.74673      3.02542      3.43953        -0.039864     -0.069046     -0.000000
      0.77082      1.33511     10.31858         0.039864      0.069046     -0.000000
     -0.77083      1.57191     12.61160        -0.039864     -0.069046     -0.000000
      0.77082      4.24212      5.73255         0.039864      0.069046     -0.000000
      1.74673      0.11840      8.02555        -0.039864     -0.069046      0.000000
      3.28838      2.78861      1.14650         0.039864      0.069046      0.000000
 -----------------------------------------------------------------------------------
    total drift:                                0.014996     -0.016536     -0.000011


--------------------------------------------------------------------------------------------------------



  FREE ENERGIE OF THE ION-ELECTRON SYSTEM (eV)
  ---------------------------------------------------
  free  energy   TOTEN  =      -221.46259698 eV

  energy  without entropy=     -221.46259698  energy(sigma->0) =     -221.46259698
 


--------------------------------------------------------------------------------------------------------


    POTLOK:  cpu time    0.1362: real time    0.1365


--------------------------------------------------------------------------------------------------------


     LOOP+:  cpu time  566.2183: real time  567.6887
    4ORBIT:  cpu time    0.0000: real time    0.0000
 


 total charge     
 
# of ion       s       p       d       tot
------------------------------------------
    1        0.284   6.340   5.852  12.476
    2        0.284   6.340   5.854  12.478
    3        0.284   6.340   5.862  12.486
    4        0.284   6.340   5.852  12.475
    5        0.283   6.340   5.854  12.478
    6        0.284   6.340   5.865  12.489
    7        0.284   6.340   5.851  12.474
    8        0.284   6.340   5.853  12.477
    9        0.283   6.340   5.854  12.477
   10        0.283   6.340   5.868  12.492
   11        0.283   6.340   5.865  12.489
   12        0.283   6.340   5.857  12.480
   13        1.568   3.416   0.000   4.984
   14        1.568   3.416   0.000   4.984
   15        1.568   3.416   0.000   4.984
   16        1.568   3.417   0.000   4.985
   17        1.568   3.417   0.000   4.985
   18        1.568   3.416   0.000   4.984
   19        1.567   3.404   0.000   4.971
   20        1.567   3.403   0.000   4.970
   21        1.567   3.405   0.000   4.971
   22        1.567   3.405   0.000   4.971
   23        1.567   3.405   0.000   4.971
   24        1.567   3.405   0.000   4.971
   25        1.568   3.417   0.000   4.986
   26        1.568   3.417   0.000   4.985
   27        1.568   3.419   0.000   4.987
   28        1.568   3.420   0.000   4.988
   29        1.568   3.419   0.000   4.988
   30        1.568   3.419   0.000   4.987
--------------------------------------------------
tot         31.619 137.516  70.288 239.422
 


 magnetization (x)
 
# of ion       s       p       d       tot
------------------------------------------
    1        0.024   0.036   3.141   3.201
    2        0.024   0.036   3.138   3.198
    3        0.025   0.036   3.135   3.195
    4        0.025   0.036   3.140   3.201
    5        0.025   0.036   3.140   3.201
    6        0.025   0.036   3.132   3.193
    7        0.024   0.036   3.125   3.185
    8        0.024   0.036   3.122   3.183
    9        0.025   0.036   3.123   3.183
   10        0.025   0.036   3.116   3.177
   11        0.025   0.036   3.119   3.179
   12        0.025   0.036   3.123   3.183
   13        0.020   0.139   0.000   0.160
   14        0.020   0.139   0.000   0.159
   15        0.020   0.139   0.000   0.159
   16        0.020   0.140   0.000   0.160
   17        0.020   0.140   0.000   0.161
   18        0.020   0.139   0.000   0.160
   19        0.021   0.143   0.000   0.165
   20        0.021   0.143   0.000   0.164
   21        0.021   0.144   0.000   0.165
   22        0.021   0.144   0.000   0.165
   23        0.021   0.144   0.000   0.165
   24        0.021   0.144   0.000   0.166
   25        0.020   0.136   0.000   0.156
   26        0.020   0.135   0.000   0.155
   27        0.020   0.136   0.000   0.157
   28        0.020   0.137   0.000   0.158
   29        0.020   0.137   0.000   0.157
   30        0.020   0.137   0.000   0.157
--------------------------------------------------
tot          0.668   2.948  37.554  41.170
 
 BZINTS: Fermi energy:  6.181570;276.000000 electrons
         Band energy:***********;  BLOECHL correction: -0.032974

 total amount of memory used by VASP MPI-rank0   120434. kBytes
=======================================================================

   base      :      30000. kBytes
   nonlr-proj:       9899. kBytes
   fftplans  :       5499. kBytes
   grid      :      13830. kBytes
   one-center:        248. kBytes
   wavefun   :      60958. kBytes
 
  
  
 General timing and accounting informations for this job:
 ========================================================
  
                  Total CPU time used (sec):      576.031
                            User time (sec):      574.303
                          System time (sec):        1.729
                         Elapsed time (sec):      577.611
  
                   Maximum memory used (kb):      174028.
                   Average memory used (kb):           0.
  
                          Minor page faults:        70489
                          Major page faults:            0
                 Voluntary context switches:          300
