       N       E                     dE             d eps       ncg     rms          rms(c)
DAV:   1     0.511407992216E+04    0.51141E+04   -0.18698E+05 11448   0.261E+03
DAV:   2     0.660971911573E+03   -0.44531E+04   -0.40817E+04 11424   0.701E+02
DAV:   3    -0.222999691809E+03   -0.88397E+03   -0.76228E+03 11808   0.287E+02
DAV:   4    -0.293666387972E+03   -0.70667E+02   -0.69763E+02 12924   0.776E+01
DAV:   5    -0.294517428359E+03   -0.85104E+00   -0.84824E+00 12804   0.956E+00    0.809E+01
DAV:   6    -0.235289519684E+03    0.59228E+02   -0.25270E+02 14808   0.811E+01    0.912E+01
DAV:   7    -0.212061478261E+03    0.23228E+02   -0.11417E+02 12312   0.637E+01    0.437E+01
DAV:   8    -0.218322581077E+03   -0.62611E+01   -0.21422E+01 12108   0.173E+01    0.265E+01
DAV:   9    -0.222506638592E+03   -0.41841E+01   -0.82211E+00 12612   0.170E+01    0.271E+01
DAV:  10    -0.222172729366E+03    0.33391E+00   -0.24578E+00 12588   0.691E+00    0.186E+01
DAV:  11    -0.221609355263E+03    0.56337E+00   -0.22784E-01 14280   0.282E+00    0.122E+01
DAV:  12    -0.221406517144E+03    0.20284E+00   -0.19576E-01 15240   0.240E+00    0.843E+00
DAV:  13    -0.221404962299E+03    0.15548E-02   -0.11235E-01 13968   0.225E+00    0.467E+00
DAV:  14    -0.221449534181E+03   -0.44572E-01   -0.15390E-01 14964   0.200E+00    0.181E+00
DAV:  15    -0.221467644430E+03   -0.18110E-01   -0.62976E-02 12636   0.677E-01    0.144E+00
DAV:  16    -0.221462552901E+03    0.50915E-02   -0.90815E-03 14364   0.708E-01    0.378E-01
DAV:  17    -0.221463173189E+03   -0.62029E-03   -0.47928E-03 12420   0.181E-01    0.194E-01
DAV:  18    -0.221463409804E+03   -0.23662E-03   -0.25185E-04 14040   0.826E-02    0.870E-02
DAV:  19    -0.221463466394E+03   -0.56590E-04   -0.10244E-04 13728   0.431E-02    0.173E-02
DAV:  20    -0.221463475216E+03   -0.88220E-05   -0.22270E-05 12468   0.145E-02    0.902E-03
DAV:  21    -0.221463473308E+03    0.19085E-05   -0.23289E-06 12624   0.856E-03    0.113E-02
DAV:  22    -0.221463474417E+03   -0.11093E-05   -0.10337E-06 10776   0.530E-03    0.516E-03
DAV:  23    -0.221463474467E+03   -0.49688E-07   -0.29751E-07  9780   0.320E-03
   1 F= -.22146347E+03 E0= -.22146347E+03  d E =0.000000E+00  mag=    42.3367
