 vasp.5.4.4.18Apr17-6-g9f103f2a35 (build Apr 28 2018 00:24:27) complex          
  
 executed on             LinuxIFC date 2021.09.06  03:49:55
 running on   24 total cores
 distrk:  each k-point on   24 cores,    1 groups
 distr:  one band on NCORES_PER_BAND=   4 cores,    6 groups


--------------------------------------------------------------------------------------------------------


 INCAR:
 POTCAR:    PAW_PBE Fe_pv 02Aug2007               
 POTCAR:    PAW_PBE O 08Apr2002                   
 POTCAR:    PAW_PBE Fe_pv 02Aug2007               
   VRHFIN =Fe:  3pd7s1                                                          
   LEXCH  = PE                                                                  
   EATOM  =  2457.4239 eV,  180.6156 Ry                                         
                                                                                
   TITEL  = PAW_PBE Fe_pv 02Aug2007                                             
   LULTRA =        F    use ultrasoft PP ?                                      
   IUNSCR =        1    unscreen: 0-lin 1-nonlin 2-no                           
   RPACOR =    1.750    partial core radius                                     
   POMASS =   55.847; ZVAL   =   14.000    mass and valenz                      
   RCORE  =    2.200    outmost cutoff radius                                   
   RWIGS  =    2.200; RWIGS  =    1.164    wigner-seitz radius (au A)           
   ENMAX  =  293.238; ENMIN  =  219.928 eV                                      
   ICORE  =        3    local potential                                         
   LCOR   =        T    correct aug charges                                     
   LPAW   =        T    paw PP                                                  
   EAUG   =  578.342                                                            
   DEXC   =    0.000                                                            
   RMAX   =    2.249    core radius for proj-oper                               
   RAUG   =    1.300    factor for augmentation sphere                          
   RDEP   =    2.296    radius for radial grids                                 
   RDEPT  =    1.766    core radius for aug-charge                              
                                                                                
   Atomic configuration                                                         
    8 entries                                                                   
     n  l   j            E        occ.                                          
     1  0  0.50     -6993.8440   2.0000                                         
     2  0  0.50      -814.6047   2.0000                                         
     2  1  1.50      -693.3689   6.0000                                         
     3  0  0.50       -89.4732   2.0000                                         
     3  1  1.50       -55.6373   6.0000                                         
     3  2  2.50        -3.8151   7.0000                                         
     4  0  0.50        -4.2551   1.0000                                         
     4  3  2.50        -1.3606   0.0000                                         
   Description                                                                  
     l       E           TYP  RCUT    TYP  RCUT                                 
     1    -55.6372668     23  2.000                                             
     1     -5.4423304     23  2.000                                             
     2     -3.8151096     23  2.200                                             
     2     -5.1756922     23  2.200                                             
     0     -4.2550951     23  2.200                                             
     0     27.2116520     23  2.200                                             
     3     -1.3605826     23  2.200                                             
  local pseudopotential read in
  partial core-charges read in
  partial kinetic energy density read in
  atomic valenz-charges read in
  non local Contribution for L=           1  read in
    real space projection operators read in
  non local Contribution for L=           1  read in
    real space projection operators read in
  non local Contribution for L=           2  read in
    real space projection operators read in
  non local Contribution for L=           2  read in
    real space projection operators read in
  non local Contribution for L=           0  read in
    real space projection operators read in
  non local Contribution for L=           0  read in
    real space projection operators read in
    PAW grid and wavefunctions read in
 
   number of l-projection  operators is LMAX  =           6
   number of lm-projection operators is LMMAX =          18
 
 POTCAR:    PAW_PBE O 08Apr2002                   
   VRHFIN =O: s2p4                                                              
   LEXCH  = PE                                                                  
   EATOM  =   432.3788 eV,   31.7789 Ry                                         
                                                                                
   TITEL  = PAW_PBE O 08Apr2002                                                 
   LULTRA =        F    use ultrasoft PP ?                                      
   IUNSCR =        1    unscreen: 0-lin 1-nonlin 2-no                           
   RPACOR =    1.200    partial core radius                                     
   POMASS =   16.000; ZVAL   =    6.000    mass and valenz                      
   RCORE  =    1.520    outmost cutoff radius                                   
   RWIGS  =    1.550; RWIGS  =    0.820    wigner-seitz radius (au A)           
   ENMAX  =  400.000; ENMIN  =  300.000 eV                                      
   ICORE  =        2    local potential                                         
   LCOR   =        T    correct aug charges                                     
   LPAW   =        T    paw PP                                                  
   EAUG   =  605.392                                                            
   DEXC   =    0.000                                                            
   RMAX   =    1.553    core radius for proj-oper                               
   RAUG   =    1.300    factor for augmentation sphere                          
   RDEP   =    1.550    radius for radial grids                                 
   RDEPT  =    1.329    core radius for aug-charge                              
                                                                                
   Atomic configuration                                                         
    4 entries                                                                   
     n  l   j            E        occ.                                          
     1  0  0.50      -514.6923   2.0000                                         
     2  0  0.50       -23.9615   2.0000                                         
     2  1  0.50        -9.0305   4.0000                                         
     3  2  1.50        -9.5241   0.0000                                         
   Description                                                                  
     l       E           TYP  RCUT    TYP  RCUT                                 
     0    -23.9615318     23  1.200                                             
     0     -9.5240782     23  1.200                                             
     1     -9.0304911     23  1.520                                             
     1      8.1634956     23  1.520                                             
     2     -9.5240782      7  1.500                                             
  local pseudopotential read in
  partial core-charges read in
  partial kinetic energy density read in
  kinetic energy density of atom read in
  atomic valenz-charges read in
  non local Contribution for L=           0  read in
    real space projection operators read in
  non local Contribution for L=           0  read in
    real space projection operators read in
  non local Contribution for L=           1  read in
    real space projection operators read in
  non local Contribution for L=           1  read in
    real space projection operators read in
    PAW grid and wavefunctions read in
 
   number of l-projection  operators is LMAX  =           4
   number of lm-projection operators is LMMAX =           8
 
 Optimization of the real space projectors (new method)

 maximal supplied QI-value         = 17.01
 optimisation between [QCUT,QGAM] = [ 15.14, 30.27] = [ 64.16,256.64] Ry 
 Optimized for a Real-space Cutoff    1.25 Angstroem

   l    n(q)    QCUT    max X(q) W(low)/X(q) W(high)/X(q)  e(spline) 
   1     11    15.137     4.267    0.17E-03    0.20E-03    0.46E-06
   1     11    15.137     5.750    0.25E-03    0.30E-03    0.64E-06
   2     10    15.137    53.656    0.15E-03    0.42E-04    0.34E-06
   2     10    15.137    49.521    0.15E-03    0.43E-04    0.35E-06
   0     11    15.137    31.246    0.49E-04    0.96E-05    0.45E-06
   0     11    15.137    12.201    0.40E-04    0.82E-05    0.37E-06
 Optimization of the real space projectors (new method)

 maximal supplied QI-value         = 24.76
 optimisation between [QCUT,QGAM] = [ 15.10, 30.20] = [ 63.86,255.42] Ry 
 Optimized for a Real-space Cutoff    0.99 Angstroem

   l    n(q)    QCUT    max X(q) W(low)/X(q) W(high)/X(q)  e(spline) 
   0      9    15.101    20.381    0.14E-03    0.38E-04    0.17E-06
   0      9    15.101    15.268    0.15E-03    0.39E-04    0.18E-06
   1      8    15.101     5.964    0.19E-03    0.45E-04    0.13E-06
   1      8    15.101     5.382    0.17E-03    0.43E-04    0.11E-06
  PAW_PBE Fe_pv 02Aug2007               :
 energy of atom  1       EATOM=-2457.4239
 kinetic energy error for atom=    0.0011 (will be added to EATOM!!)
  PAW_PBE O 08Apr2002                   :
 energy of atom  2       EATOM= -432.3788
 kinetic energy error for atom=    0.0027 (will be added to EATOM!!)
 
 
 POSCAR: Fe12 O18                                
  positions in direct lattice
  No initial velocities read in
 exchange correlation table for  LEXCH =        8
   RHO(1)=    0.500       N(1)  =     2000
   RHO(2)=  100.500       N(2)  =     4000
 


--------------------------------------------------------------------------------------------------------


 ion  position               nearest neighbor table
   1  0.000  0.000  0.355-  17 1.94  23 1.94  28 1.94  25 2.12  19 2.12  13 2.12
   2  0.000  0.000  0.645-  16 1.94  22 1.94  29 1.94  26 2.12  20 2.12  14 2.12
   3  0.333  0.667  0.022-  30 1.94  24 1.94  18 1.94  27 2.12  21 2.12  15 2.12
   4  0.667  0.333  0.689-  14 1.94  20 1.94  26 1.94  22 2.12  29 2.12  16 2.12
   5  0.333  0.667  0.311-  13 1.94  19 1.94  25 1.94  23 2.12  28 2.12  17 2.12
   6  0.667  0.333  0.978-  27 1.94  21 1.94  15 1.94  30 2.12  24 2.12  18 2.12
   7  0.000  0.000  0.145-  24 1.94  18 1.94  30 1.94  25 2.12  19 2.12  13 2.12
   8  0.000  0.000  0.855-  21 1.94  15 1.94  27 1.94  26 2.12  20 2.12  14 2.12
   9  0.333  0.667  0.811-  20 1.94  14 1.94  26 1.94  27 2.12  21 2.12  15 2.12
  10  0.333  0.667  0.522-  29 1.94  16 1.94  22 1.94  23 2.12  28 2.12  17 2.12
  11  0.667  0.333  0.478-  28 1.94  17 1.94  23 1.94  22 2.12  29 2.12  16 2.12
  12  0.667  0.333  0.189-  19 1.94  13 1.94  25 1.94  30 2.12  24 2.12  18 2.12
  13  0.306  0.000  0.250-   5 1.94  12 1.94   7 2.12   1 2.12
  14  0.694  0.000  0.750-   4 1.94   9 1.94   8 2.12   2 2.12
  15  0.640  0.667  0.917-   6 1.94   8 1.94   9 2.12   3 2.12
  16  0.973  0.333  0.583-  10 1.94   2 1.94   4 2.12  11 2.12
  17  0.027  0.667  0.417-  11 1.94   1 1.94   5 2.12  10 2.12
  18  0.360  0.333  0.083-   3 1.94   7 1.94  12 2.12   6 2.12
  19  0.000  0.306  0.250-  12 1.94   5 1.94   7 2.12   1 2.12
  20  0.000  0.694  0.750-   9 1.94   4 1.94   8 2.12   2 2.12
  21  0.333  0.973  0.917-   6 1.94   8 1.94   9 2.12   3 2.12
  22  0.667  0.640  0.583-  10 1.94   2 1.94   4 2.12  11 2.12
  23  0.333  0.360  0.417-  11 1.94   1 1.94   5 2.12  10 2.12
  24  0.667  0.027  0.083-   3 1.94   7 1.94  12 2.12   6 2.12
  25  0.694  0.694  0.250-  12 1.94   5 1.94   7 2.12   1 2.12
  26  0.306  0.306  0.750-   9 1.94   4 1.94   8 2.12   2 2.12
  27  0.027  0.360  0.917-   6 1.94   8 1.94   9 2.12   3 2.12
  28  0.640  0.973  0.417-  11 1.94   1 1.94   5 2.12  10 2.12
  29  0.360  0.027  0.583-  10 1.94   2 1.94   4 2.12  11 2.12
  30  0.973  0.640  0.083-   3 1.94   7 1.94  12 2.12   6 2.12
 
  LATTYP: Found a hexagonal cell.
 ALAT       =     5.0350995578
 C/A-ratio  =     2.7324385232
  
  Lattice vectors:
  
 A1 = (   5.0351000000,   0.0000000000,   0.0000000000)
 A2 = (  -2.5175500000,   4.3605240000,   0.0000000000)
 A3 = (   0.0000000000,   0.0000000000,  13.7581000000)


Analysis of symmetry for initial positions (statically):
=====================================================================
 Subroutine PRICEL returns following result:
 
  LATTYP: Found a trigonal (rhomboedric) cell.
 ALAT       =     5.4297801492
 COS(alpha) =     0.5700456062
  
  Lattice vectors:
  
 A1 = (  -2.5175449649,  -1.4535109070,  -4.5860425054)
 A2 = (  -0.0000025175,   2.9070174535,  -4.5860287473)
 A3 = (   2.5175474825,  -1.4535065465,  -4.5860287473)
 
   3 primitive cells build up your supercell.
 

 Routine SETGRP: Setting up the symmetry group for a 
 hexagonal supercell.


 Subroutine GETGRP returns: Found 12 space group operations
 (whereof  6 operations were pure point group operations)
 out of a pool of 24 trial point group operations.


The static configuration has the point symmetry S_6 .
 The point group associated with its full space group is D_3d.


Analysis of symmetry for dynamics (positions and initial velocities):
=====================================================================
 Subroutine PRICEL returns following result:
 
  LATTYP: Found a trigonal (rhomboedric) cell.
 ALAT       =     5.4297801492
 COS(alpha) =     0.5700456062
  
  Lattice vectors:
  
 A1 = (  -2.5175449649,  -1.4535109070,  -4.5860425054)
 A2 = (  -0.0000025175,   2.9070174535,  -4.5860287473)
 A3 = (   2.5175474825,  -1.4535065465,  -4.5860287473)
 
   3 primitive cells build up your supercell.
 

 Routine SETGRP: Setting up the symmetry group for a 
 hexagonal supercell.


 Subroutine GETGRP returns: Found 12 space group operations
 (whereof  6 operations were pure point group operations)
 out of a pool of 24 trial point group operations.


The dynamic configuration has the point symmetry S_6 .
 The point group associated with its full space group is D_3d.


Analysis of structural, dynamic, and magnetic symmetry:
=====================================================================
 Subroutine PRICEL returns following result:
 
  LATTYP: Found a trigonal (rhomboedric) cell.
 ALAT       =     5.4297801492
 COS(alpha) =     0.5700456062
  
  Lattice vectors:
  
 A1 = (  -2.5175449649,  -1.4535109070,  -4.5860425054)
 A2 = (  -0.0000025175,   2.9070174535,  -4.5860287473)
 A3 = (   2.5175474825,  -1.4535065465,  -4.5860287473)
 
   3 primitive cells build up your supercell.
 

 Routine SETGRP: Setting up the symmetry group for a 
 hexagonal supercell.


 Subroutine GETGRP returns: Found 12 space group operations
 (whereof  6 operations were pure point group operations)
 out of a pool of 24 trial point group operations.


The magnetic configuration has the point symmetry S_6 .
 The point group associated with its full space group is D_3d.


 Subroutine INISYM returns: Found 12 space group operations
 (whereof  6 operations are pure point group operations),
 and found     3 'primitive' translations

 
 
 KPOINTS: pymatgen with grid density = 2464 / numb

Automatic generation of k-mesh.
Space group operators:
 irot       det(A)        alpha          n_x          n_y          n_z        tau_x        tau_y        tau_z
    1     1.000000     0.000000     1.000000     0.000000     0.000000     0.000000     0.000000     0.000000
    2    -1.000000     0.000000     1.000000     0.000000     0.000000     0.000000     0.000000     0.000000
    3     1.000000   120.000000     0.000000     0.000000    -1.000000     0.000000     0.000000     0.000000
    4    -1.000000   120.000000     0.000000     0.000000    -1.000000     0.000000     0.000000     0.000000
    5     1.000000   120.000000     0.000000     0.000000     1.000000     0.000000     0.000000     0.000000
    6    -1.000000   120.000000     0.000000     0.000000     1.000000     0.000000     0.000000     0.000000
    7     1.000000   180.000000     1.000000     0.000000     0.000000     0.000001    -0.000000    -0.500000
    8    -1.000000   180.000000     1.000000     0.000000     0.000000     0.000001    -0.000000    -0.500000
    9     1.000000   180.000000     0.500000    -0.866025     0.000000     0.000000     0.000000    -0.500000
   10    -1.000000   180.000000     0.500000    -0.866025     0.000000     0.000000     0.000000    -0.500000
   11     1.000000   180.000000    -0.500000    -0.866025     0.000000     0.000000     0.000000    -0.500000
   12    -1.000000   180.000000    -0.500000    -0.866025     0.000000     0.000000     0.000000    -0.500000
 
 Subroutine IBZKPT returns following result:
 ===========================================
 
 Found     14 irreducible k-points:
 
 Following reciprocal coordinates:
            Coordinates               Weight
  0.000000  0.000000  0.000000      1.000000
  0.166667  0.000000  0.000000      6.000000
  0.333333  0.000000  0.000000      6.000000
  0.500000  0.000000  0.000000      3.000000
  0.166667  0.166667  0.000000      6.000000
  0.333333  0.166667  0.000000     12.000000
  0.333333  0.333333  0.000000      2.000000
  0.000000  0.000000  0.500000      1.000000
  0.166667  0.000000  0.500000      6.000000
  0.333333  0.000000  0.500000      6.000000
  0.500000  0.000000  0.500000      3.000000
  0.166667  0.166667  0.500000      6.000000
  0.333333  0.166667  0.500000     12.000000
  0.333333  0.333333  0.500000      2.000000
 
 Following cartesian coordinates:
            Coordinates               Weight
  0.000000  0.000000  0.000000      1.000000
  0.033101  0.019111  0.000000      6.000000
  0.066202  0.038222  0.000000      6.000000
  0.099303  0.057333  0.000000      3.000000
  0.033101  0.057333  0.000000      6.000000
  0.066202  0.076443  0.000000     12.000000
  0.066202  0.114665  0.000000      2.000000
  0.000000  0.000000  0.036342      1.000000
  0.033101  0.019111  0.036342      6.000000
  0.066202  0.038222  0.036342      6.000000
  0.099303  0.057333  0.036342      3.000000
  0.033101  0.057333  0.036342      6.000000
  0.066202  0.076443  0.036342     12.000000
  0.066202  0.114665  0.036342      2.000000
 
 TETIRR: Found     71 inequivalent tetrahedra from      432


--------------------------------------------------------------------------------------------------------




 Dimension of arrays:
   k-points           NKPTS =     14   k-points in BZ     NKDIM =     14   number of bands    NBANDS=    204
   number of dos      NEDOS =    301   number of ions     NIONS =     30
   non local maximal  LDIM  =      6   non local SUM 2l+1 LMDIM =     18
   total plane-waves  NPLWV = 350000
   max r-space proj   IRMAX =   9548   max aug-charges    IRDMAX=  34512
   dimension x,y,z NGX =    50 NGY =   50 NGZ =  140
   dimension x,y,z NGXF=   100 NGYF=  100 NGZF=  280
   support grid    NGXF=   100 NGYF=  100 NGZF=  280
   ions per type =              12  18
   NGX,Y,Z   is equivalent  to a cutoff of  16.51, 16.51, 16.92 a.u.
   NGXF,Y,Z  is equivalent  to a cutoff of  33.02, 33.02, 33.83 a.u.

 SYSTEM =  unknown system                          
 POSCAR =  Fe12 O18                                

 Startparameter for this run:
   NWRITE =      2    write-flag & timer
   PREC   = accura    normal or accurate (medium, high low for compatibility)
   ISTART =      0    job   : 0-new  1-cont  2-samecut
   ICHARG =      2    charge: 1-file 2-atom 10-const
   ISPIN  =      2    spin polarized calculation?
   LNONCOLLINEAR =      F non collinear calculations
   LSORBIT =      F    spin-orbit coupling
   INIWAV =      1    electr: 0-lowe 1-rand  2-diag
   LASPH  =      F    aspherical Exc in radial PAW
   METAGGA=      F    non-selfconsistent MetaGGA calc.

 Electronic Relaxation 1
   ENCUT  =  880.0 eV  64.68 Ry    8.04 a.u.  12.18 12.18 33.28*2*pi/ulx,y,z
   ENINI  =  880.0     initial cutoff
   ENAUG  =  605.4 eV  augmentation charge cutoff
   NELM   =    100;   NELMIN=  2; NELMDL= -5     # of ELM steps 
   EDIFF  = 0.1E-06   stopping-criterion for ELM
   LREAL  =      T    real-space projection
   NLSPLINE    = F    spline interpolate recip. space projectors
   LCOMPAT=      F    compatible to vasp.4.4
   GGA_COMPAT  = T    GGA compatible to vasp.4.4-vasp.4.6
   LMAXPAW     = -100 max onsite density
   LMAXMIX     =    2 max onsite mixed and CHGCAR
   VOSKOWN=      0    Vosko Wilk Nusair interpolation
   ROPT   =   -0.00025  -0.00025
 Ionic relaxation
   EDIFFG = 0.1E-05   stopping-criterion for IOM
   NSW    =      0    number of steps for IOM
   NBLOCK =      1;   KBLOCK =      1    inner block; outer block 
   IBRION =     -1    ionic relax: 0-MD 1-quasi-New 2-CG
   NFREE  =      0    steps in history (QN), initial steepest desc. (CG)
   ISIF   =      3    stress and relaxation
   IWAVPR =     10    prediction:  0-non 1-charg 2-wave 3-comb
   ISYM   =      2    0-nonsym 1-usesym 2-fastsym
   LCORR  =      T    Harris-Foulkes like correction to forces

   POTIM  = 0.5000    time-step for ionic-motion
   TEIN   =    0.0    initial temperature
   TEBEG  =    0.0;   TEEND  =   0.0 temperature during run
   SMASS  =  -3.00    Nose mass-parameter (am)
   estimated Nose-frequenzy (Omega)   =  0.10E-29 period in steps =****** mass=  -0.579E-27a.u.
   SCALEE = 1.0000    scale energy and forces
   NPACO  =    256;   APACO  = 16.0  distance and # of slots for P.C.
   PSTRESS=    0.0 pullay stress

  Mass of Ions in am
   POMASS =  55.85 16.00
  Ionic Valenz
   ZVAL   =  14.00  6.00
  Atomic Wigner-Seitz radii
   RWIGS  =  -1.00 -1.00
  virtual crystal weights 
   VCA    =   1.00  1.00
   NELECT =     276.0000    total number of electrons
   NUPDOWN=      -1.0000    fix difference up-down

 DOS related values:
   EMIN   =  10.00;   EMAX   =-10.00  energy-range for DOS
   EFERMI =   0.00
   ISMEAR =    -5;   SIGMA  =   0.05  broadening in eV -4-tet -1-fermi 0-gaus

 Electronic relaxation 2 (details)
   IALGO  =     38    algorithm
   LDIAG  =      T    sub-space diagonalisation (order eigenvalues)
   LSUBROT=      F    optimize rotation matrix (better conditioning)
   TURBO    =      0    0=normal 1=particle mesh
   IRESTART =      0    0=no restart 2=restart with 2 vectors
   NREBOOT  =      0    no. of reboots
   NMIN     =      0    reboot dimension
   EREF     =   0.00    reference energy to select bands
   IMIX   =      4    mixing-type and parameters
     AMIX     =   0.40;   BMIX     =  1.00
     AMIX_MAG =   1.60;   BMIX_MAG =  1.00
     AMIN     =   0.10
     WC   =   100.;   INIMIX=   1;  MIXPRE=   1;  MAXMIX= -45

 Intra band minimization:
   WEIMIN = 0.0000     energy-eigenvalue tresh-hold
   EBREAK =  0.12E-09  absolut break condition
   DEPER  =   0.30     relativ break condition  

   TIME   =   0.40     timestep for ELM

  volume/ion in A,a.u.               =      10.07        67.95
  Fermi-wavevector in a.u.,A,eV,Ry     =   1.588581  3.001983 34.335534  2.523591
  Thomas-Fermi vector in A             =   2.687563
 
 Write flags
   LWAVE        =      F    write WAVECAR
   LDOWNSAMPLE  =      F    k-point downsampling of WAVECAR
   LCHARG       =      F    write CHGCAR
   LVTOT        =      F    write LOCPOT, total local potential
   LVHAR        =      F    write LOCPOT, Hartree potential only
   LELF         =      F    write electronic localiz. function (ELF)
   LORBIT       =     11    0 simple, 1 ext, 2 COOP (PROOUT), +10 PAW based schemes


 Dipole corrections
   LMONO  =      F    monopole corrections only (constant potential shift)
   LDIPOL =      F    correct potential (dipole corrections)
   IDIPOL =      0    1-x, 2-y, 3-z, 4-all directions 
   EPSILON=  1.0000000 bulk dielectric constant

 Exchange correlation treatment:
   GGA     =    --    GGA type
   LEXCH   =     8    internal setting for exchange type
   VOSKOWN=      0    Vosko Wilk Nusair interpolation
   LHFCALC =     F    Hartree Fock is set to
   LHFONE  =     F    Hartree Fock one center treatment
   AEXX    =    0.0000 exact exchange contribution

 Linear response parameters
   LEPSILON=     F    determine dielectric tensor
   LRPA    =     F    only Hartree local field effects (RPA)
   LNABLA  =     F    use nabla operator in PAW spheres
   LVEL    =     F    velocity operator in full k-point grid
   LINTERFAST=   F  fast interpolation
   KINTER  =     0    interpolate to denser k-point grid
   CSHIFT  =0.1000    complex shift for real part using Kramers Kronig
   OMEGAMAX=  -1.0    maximum frequency
   DEG_THRESHOLD= 0.2000000E-02 threshold for treating states as degnerate
   RTIME   =   -0.100 relaxation time in fs
  (WPLASMAI=    0.000 imaginary part of plasma frequency in eV, 0.658/RTIME)
   DFIELD  = 0.0000000 0.0000000 0.0000000 field for delta impulse in time
 
 Orbital magnetization related:
   ORBITALMAG=     F  switch on orbital magnetization
   LCHIMAG   =     F  perturbation theory with respect to B field
   DQ        =  0.001000  dq finite difference perturbation B field
   LLRAUG    =     F  two centre corrections for induced B field



--------------------------------------------------------------------------------------------------------


 Static calculation
 charge density and potential will be updated during run
 spin polarized calculation
 Variant of blocked Davidson
 Davidson routine will perform the subspace rotation
 perform sub-space diagonalisation
    after iterative eigenvector-optimisation
 modified Broyden-mixing scheme, WC =      100.0
 initial mixing is a Kerker type mixing with AMIX =  0.4000 and BMIX =      1.0000
 Hartree-type preconditioning will be used
 using additional bands           66
 real space projection scheme for non local part
 use partial core corrections
 calculate Harris-corrections to forces 
   (improved forces if not selfconsistent)
 use gradient corrections 
 use of overlap-Matrix (Vanderbilt PP)
 Fermi weights with tetrahedron method with Bloechl corrections


--------------------------------------------------------------------------------------------------------


  energy-cutoff  :      880.00
  volume of cell :      302.07
      direct lattice vectors                 reciprocal lattice vectors
     5.035100000  0.000000000  0.000000000     0.198605787  0.114665118  0.000000000
    -2.517550000  4.360524000  0.000000000     0.000000000  0.229330236  0.000000000
     0.000000000  0.000000000 13.758100000     0.000000000  0.000000000  0.072684455

  length of vectors
     5.035100000  5.035099558 13.758100000     0.229330216  0.229330236  0.072684455


 
 k-points in units of 2pi/SCALE and weight: pymatgen with grid density = 2464 / numb
   0.00000000  0.00000000  0.00000000       0.014
   0.03310096  0.01911085  0.00000000       0.083
   0.06620193  0.03822171  0.00000000       0.083
   0.09930289  0.05733256  0.00000000       0.042
   0.03310096  0.05733256  0.00000000       0.083
   0.06620193  0.07644341  0.00000000       0.167
   0.06620193  0.11466512  0.00000000       0.028
   0.00000000  0.00000000  0.03634223       0.014
   0.03310096  0.01911085  0.03634223       0.083
   0.06620193  0.03822171  0.03634223       0.083
   0.09930289  0.05733256  0.03634223       0.042
   0.03310096  0.05733256  0.03634223       0.083
   0.06620193  0.07644341  0.03634223       0.167
   0.06620193  0.11466512  0.03634223       0.028
 
 k-points in reciprocal lattice and weights: pymatgen with grid density = 2464 / numb
   0.00000000  0.00000000  0.00000000       0.014
   0.16666667  0.00000000  0.00000000       0.083
   0.33333333  0.00000000  0.00000000       0.083
   0.50000000  0.00000000  0.00000000       0.042
   0.16666667  0.16666667  0.00000000       0.083
   0.33333333  0.16666667  0.00000000       0.167
   0.33333333  0.33333333  0.00000000       0.028
   0.00000000  0.00000000  0.50000000       0.014
   0.16666667  0.00000000  0.50000000       0.083
   0.33333333  0.00000000  0.50000000       0.083
   0.50000000  0.00000000  0.50000000       0.042
   0.16666667  0.16666667  0.50000000       0.083
   0.33333333  0.16666667  0.50000000       0.167
   0.33333333  0.33333333  0.50000000       0.028
 
 position of ions in fractional coordinates (direct lattice) 
   0.00000000  0.00000000  0.35532000
   0.00000000  0.00000000  0.64468000
   0.33333300  0.66666700  0.02198700
   0.66666700  0.33333300  0.68865300
   0.33333300  0.66666700  0.31134700
   0.66666700  0.33333300  0.97801300
   0.00000000  0.00000000  0.14468000
   0.00000000  0.00000000  0.85532000
   0.33333300  0.66666700  0.81134700
   0.33333300  0.66666700  0.52198700
   0.66666700  0.33333300  0.47801300
   0.66666700  0.33333300  0.18865300
   0.30618000  0.00000000  0.25000000
   0.69382000  0.00000000  0.75000000
   0.63951300  0.66666700  0.91666700
   0.97284700  0.33333300  0.58333300
   0.02715300  0.66666700  0.41666700
   0.36048700  0.33333300  0.08333300
   0.00000000  0.30618000  0.25000000
   0.00000000  0.69382000  0.75000000
   0.33333300  0.97284700  0.91666700
   0.66666700  0.63951300  0.58333300
   0.33333300  0.36048700  0.41666700
   0.66666700  0.02715300  0.08333300
   0.69382000  0.69382000  0.25000000
   0.30618000  0.30618000  0.75000000
   0.02715300  0.36048700  0.91666700
   0.63951300  0.97284700  0.41666700
   0.36048700  0.02715300  0.58333300
   0.97284700  0.63951300  0.08333300
 
 position of ions in cartesian coordinates  (Angst):
   0.00000000  0.00000000  4.88852809
   0.00000000  0.00000000  8.86957191
  -0.00000252  2.90701745  0.30249934
   2.51755252  1.45350655  9.47455684
  -0.00000252  2.90701745  4.28354316
   2.51755252  1.45350655 13.45560066
   0.00000000  0.00000000  1.99052191
   0.00000000  0.00000000 11.76757809
  -0.00000252  2.90701745 11.16259316
  -0.00000252  2.90701745  7.18154934
   2.51755252  1.45350655  6.57655066
   2.51755252  1.45350655  2.59550684
   1.54164692  0.00000000  3.43952500
   3.49345308  0.00000000 10.31857500
   1.54164440  2.90701745 12.61159625
   4.05919944  1.45350655  8.02555375
  -1.54164944  2.90701745  5.73254625
   0.97590560  1.45350655  1.14650375
  -0.77082346  1.33510524  3.43952500
  -1.74672654  3.02541876 10.31857500
  -0.77082598  4.24212269 12.61159625
   1.74672906  2.78861178  8.02555375
   0.77082094  1.57191222  5.73254625
   3.28837598  0.11840131  1.14650375
   1.74672654  3.02541876  3.43952500
   0.77082346  1.33510524 10.31857500
  -0.77082598  1.57191222 12.61159625
   0.77082094  4.24212269  5.73254625
   1.74672906  0.11840131  8.02555375
   3.28837598  2.78861178  1.14650375
 


--------------------------------------------------------------------------------------------------------


 k-point  1 :   0.0000 0.0000 0.0000  plane waves:   17839
 k-point  2 :   0.1667 0.0000 0.0000  plane waves:   17915
 k-point  3 :   0.3333 0.0000 0.0000  plane waves:   17929
 k-point  4 :   0.5000 0.0000 0.0000  plane waves:   17930
 k-point  5 :   0.1667 0.1667 0.0000  plane waves:   17906
 k-point  6 :   0.3333 0.1667 0.0000  plane waves:   17879
 k-point  7 :   0.3333 0.3333 0.0000  plane waves:   17910
 k-point  8 :   0.0000 0.0000 0.5000  plane waves:   17838
 k-point  9 :   0.1667 0.0000 0.5000  plane waves:   17872
 k-point 10 :   0.3333 0.0000 0.5000  plane waves:   17928
 k-point 11 :   0.5000 0.0000 0.5000  plane waves:   17948
 k-point 12 :   0.1667 0.1667 0.5000  plane waves:   17882
 k-point 13 :   0.3333 0.1667 0.5000  plane waves:   17924
 k-point 14 :   0.3333 0.3333 0.5000  plane waves:   17892

 maximum and minimum number of plane-waves per node :      4505     4443

 maximum number of plane-waves:     17948
 maximum index in each direction: 
   IXMAX=   12   IYMAX=   12   IZMAX=   33
   IXMIN=  -12   IYMIN=  -12   IZMIN=  -33


 real space projection operators:
  total allocation   :      20667.19 KBytes
  max/ min on nodes  :       5381.50       4943.38


 parallel 3D FFT for wavefunctions:
    minimum data exchange during FFTs selected (reduces bandwidth)
 parallel 3D FFT for charge:
    minimum data exchange during FFTs selected (reduces bandwidth)


 total amount of memory used by VASP MPI-rank0   137631. kBytes
=======================================================================

   base      :      30000. kBytes
   nonlr-proj:      11481. kBytes
   fftplans  :       7241. kBytes
   grid      :      18564. kBytes
   one-center:        248. kBytes
   wavefun   :      70097. kBytes
 
     INWAV:  cpu time    0.0000: real time    0.0001
 Broyden mixing: mesh for mixing (old mesh)
   NGX = 25   NGY = 25   NGZ = 67
  (NGX  =100   NGY  =100   NGZ  =280)
  gives a total of  41875 points

 initial charge density was supplied:
 charge density of overlapping atoms calculated
 number of electron     276.0000000 magnetization      70.8000000
 keeping initial charge density in first step


--------------------------------------------------------------------------------------------------------


 Maximum index for non-local projection operator         2553
 Maximum index for augmentation-charges         2258 (set IRDMAX)


--------------------------------------------------------------------------------------------------------


 First call to EWALD:  gamma=   0.264
 Maximum number of real-space cells 4x 4x 2
 Maximum number of reciprocal cells 2x 2x 5

    FEWALD:  cpu time    0.0017: real time    0.0017


--------------------------------------- Iteration      1(   1)  ---------------------------------------


    POTLOK:  cpu time    0.1740: real time    0.1751
    SETDIJ:  cpu time    0.0183: real time    0.0183
     EDDAV:  cpu time   23.1647: real time   23.2274
 BZINTS: Fermi energy: 33.350725;276.000000 electrons
         Band energy:2097.414451;  BLOECHL correction: -0.125104
       DOS:  cpu time    0.0456: real time    0.0457
    --------------------------------------------
      LOOP:  cpu time   23.4025: real time   23.4665

 eigenvalue-minimisations  : 11448
 total energy-change (2. order) : 0.5114080E+04  (-0.1869760E+05)
 number of electron     276.0000000 magnetization      70.8000000
 augmentation part      276.0000000 magnetization      70.8000000

 Free energy of the ion-electron system (eV)
  ---------------------------------------------------
  alpha Z        PSCENC =      1362.55286497
  Ewald energy   TEWEN  =    -25513.06237826
  -Hartree energ DENC   =    -10371.14386019
  -exchange      EXHF   =         0.00000000
  -V(xc)+E(xc)   XCENC  =      1375.27777967
  PAW double counting   =     30224.59406688   -31333.39571732
  entropy T*S    EENTRO =         0.00000000
  eigenvalues    EBANDS =      2097.41445135
  atomic energy  EATOM  =     37271.84271507
  Solvation  Ediel_sol  =         0.00000000
  ---------------------------------------------------
  free energy    TOTEN  =      5114.07992216 eV

  energy without entropy =     5114.07992216  energy(sigma->0) =     5114.07992216


--------------------------------------------------------------------------------------------------------




--------------------------------------- Iteration      1(   2)  ---------------------------------------


     EDDAV:  cpu time   27.0809: real time   27.1532
 BZINTS: Fermi energy: 12.261027;276.000000 electrons
         Band energy:***********;  BLOECHL correction: -0.043234
       DOS:  cpu time    0.0471: real time    0.0472
    --------------------------------------------
      LOOP:  cpu time   27.1280: real time   27.2005

 eigenvalue-minimisations  : 11424
 total energy-change (2. order) :-0.4453108E+04  (-0.4081658E+04)
 number of electron     276.0000000 magnetization      70.8000000
 augmentation part      276.0000000 magnetization      70.8000000

 Free energy of the ion-electron system (eV)
  ---------------------------------------------------
  alpha Z        PSCENC =      1362.55286497
  Ewald energy   TEWEN  =    -25513.06237826
  -Hartree energ DENC   =    -10371.14386019
  -exchange      EXHF   =         0.00000000
  -V(xc)+E(xc)   XCENC  =      1375.27777967
  PAW double counting   =     30224.59406688   -31333.39571732
  entropy T*S    EENTRO =         0.00000000
  eigenvalues    EBANDS =     -2355.69355924
  atomic energy  EATOM  =     37271.84271507
  Solvation  Ediel_sol  =         0.00000000
  ---------------------------------------------------
  free energy    TOTEN  =       660.97191157 eV

  energy without entropy =      660.97191157  energy(sigma->0) =      660.97191157


--------------------------------------------------------------------------------------------------------




--------------------------------------- Iteration      1(   3)  ---------------------------------------


     EDDAV:  cpu time   27.9408: real time   28.0162
 BZINTS: Fermi energy:  8.877731;276.000000 electrons
         Band energy:***********;  BLOECHL correction:  0.000000
       DOS:  cpu time    0.0072: real time    0.0073
    --------------------------------------------
      LOOP:  cpu time   27.9480: real time   28.0235

 eigenvalue-minimisations  : 11808
 total energy-change (2. order) :-0.8839716E+03  (-0.7622827E+03)
 number of electron     276.0000000 magnetization      70.8000000
 augmentation part      276.0000000 magnetization      70.8000000

 Free energy of the ion-electron system (eV)
  ---------------------------------------------------
  alpha Z        PSCENC =      1362.55286497
  Ewald energy   TEWEN  =    -25513.06237826
  -Hartree energ DENC   =    -10371.14386019
  -exchange      EXHF   =         0.00000000
  -V(xc)+E(xc)   XCENC  =      1375.27777967
  PAW double counting   =     30224.59406688   -31333.39571732
  entropy T*S    EENTRO =         0.00000000
  eigenvalues    EBANDS =     -3239.66516262
  atomic energy  EATOM  =     37271.84271507
  Solvation  Ediel_sol  =         0.00000000
  ---------------------------------------------------
  free energy    TOTEN  =      -222.99969181 eV

  energy without entropy =     -222.99969181  energy(sigma->0) =     -222.99969181


--------------------------------------------------------------------------------------------------------




--------------------------------------- Iteration      1(   4)  ---------------------------------------


     EDDAV:  cpu time   29.9325: real time   30.0131
 BZINTS: Fermi energy:  8.196888;276.000000 electrons
         Band energy:***********;  BLOECHL correction:  0.000000
       DOS:  cpu time    0.0060: real time    0.0061
    --------------------------------------------
      LOOP:  cpu time   29.9386: real time   30.0192

 eigenvalue-minimisations  : 12924
 total energy-change (2. order) :-0.7066670E+02  (-0.6976265E+02)
 number of electron     276.0000000 magnetization      70.8000000
 augmentation part      276.0000000 magnetization      70.8000000

 Free energy of the ion-electron system (eV)
  ---------------------------------------------------
  alpha Z        PSCENC =      1362.55286497
  Ewald energy   TEWEN  =    -25513.06237826
  -Hartree energ DENC   =    -10371.14386019
  -exchange      EXHF   =         0.00000000
  -V(xc)+E(xc)   XCENC  =      1375.27777967
  PAW double counting   =     30224.59406688   -31333.39571732
  entropy T*S    EENTRO =         0.00000000
  eigenvalues    EBANDS =     -3310.33185878
  atomic energy  EATOM  =     37271.84271507
  Solvation  Ediel_sol  =         0.00000000
  ---------------------------------------------------
  free energy    TOTEN  =      -293.66638797 eV

  energy without entropy =     -293.66638797  energy(sigma->0) =     -293.66638797


--------------------------------------------------------------------------------------------------------




--------------------------------------- Iteration      1(   5)  ---------------------------------------


     EDDAV:  cpu time   29.7374: real time   29.8213
 BZINTS: Fermi energy:  8.159279;276.000000 electrons
         Band energy:***********;  BLOECHL correction:  0.000000
       DOS:  cpu time    0.0063: real time    0.0063
    CHARGE:  cpu time    1.1579: real time    1.1609
    MIXING:  cpu time    0.0036: real time    0.0036
    --------------------------------------------
      LOOP:  cpu time   30.9053: real time   30.9921

 eigenvalue-minimisations  : 12804
 total energy-change (2. order) :-0.8510404E+00  (-0.8482363E+00)
 number of electron     275.9999998 magnetization      67.8179405
 augmentation part      108.0142305 magnetization      47.0437148

 Broyden mixing:
  rms(total) = 0.80934E+01    rms(broyden)= 0.80934E+01
  rms(prec ) = 0.88393E+01
  weight for this iteration     100.00

 Free energy of the ion-electron system (eV)
  ---------------------------------------------------
  alpha Z        PSCENC =      1362.55286497
  Ewald energy   TEWEN  =    -25513.06237826
  -Hartree energ DENC   =    -10371.14386019
  -exchange      EXHF   =         0.00000000
  -V(xc)+E(xc)   XCENC  =      1375.27777967
  PAW double counting   =     30224.59406688   -31333.39571732
  entropy T*S    EENTRO =         0.00000000
  eigenvalues    EBANDS =     -3311.18289917
  atomic energy  EATOM  =     37271.84271507
  Solvation  Ediel_sol  =         0.00000000
  ---------------------------------------------------
  free energy    TOTEN  =      -294.51742836 eV

  energy without entropy =     -294.51742836  energy(sigma->0) =     -294.51742836


--------------------------------------------------------------------------------------------------------




--------------------------------------- Iteration      1(   6)  ---------------------------------------


    POTLOK:  cpu time    0.1852: real time    0.1872
    SETDIJ:  cpu time    0.0182: real time    0.0182
     EDDAV:  cpu time   33.2566: real time   33.3441
 BZINTS: Fermi energy:  5.534901;276.000000 electrons
         Band energy:***********;  BLOECHL correction: -0.054530
       DOS:  cpu time    0.0522: real time    0.0525
    CHARGE:  cpu time    1.1801: real time    1.1831
    MIXING:  cpu time    0.0038: real time    0.0038
    --------------------------------------------
      LOOP:  cpu time   34.6961: real time   34.7890

 eigenvalue-minimisations  : 14808
 total energy-change (2. order) : 0.5922791E+02  (-0.2526970E+02)
 number of electron     275.9999997 magnetization      62.9803301
 augmentation part      120.7070673 magnetization      54.4139959

 Broyden mixing:
  rms(total) = 0.91201E+01    rms(broyden)= 0.91201E+01
  rms(prec ) = 0.97689E+01
  weight for this iteration     100.00

 eigenvalues of (default mixing * dielectric matrix)
  average eigenvalue GAMMA=   0.3187
  0.3187

 Free energy of the ion-electron system (eV)
  ---------------------------------------------------
  alpha Z        PSCENC =      1362.55286497
  Ewald energy   TEWEN  =    -25513.06237826
  -Hartree energ DENC   =     -9965.67850691
  -exchange      EXHF   =         0.00000000
  -V(xc)+E(xc)   XCENC  =      1376.63651683
  PAW double counting   =     31436.40791850   -32503.30847469
  entropy T*S    EENTRO =         0.00000000
  eigenvalues    EBANDS =     -3700.68017519
  atomic energy  EATOM  =     37271.84271507
  Solvation  Ediel_sol  =         0.00000000
  ---------------------------------------------------
  free energy    TOTEN  =      -235.28951968 eV

  energy without entropy =     -235.28951968  energy(sigma->0) =     -235.28951968


--------------------------------------------------------------------------------------------------------




--------------------------------------- Iteration      1(   7)  ---------------------------------------


    POTLOK:  cpu time    0.1848: real time    0.1868
    SETDIJ:  cpu time    0.0182: real time    0.0182
     EDDAV:  cpu time   28.7603: real time   28.8366
 BZINTS: Fermi energy:  7.079422;276.000000 electrons
         Band energy:***********;  BLOECHL correction: -0.036404
       DOS:  cpu time    0.0499: real time    0.0500
    CHARGE:  cpu time    1.1596: real time    1.1626
    MIXING:  cpu time    0.0037: real time    0.0037
    --------------------------------------------
      LOOP:  cpu time   30.1765: real time   30.2580

 eigenvalue-minimisations  : 12312
 total energy-change (2. order) : 0.2322804E+02  (-0.1141718E+02)
 number of electron     275.9999997 magnetization      58.7856163
 augmentation part      109.3459759 magnetization      40.3291689

 Broyden mixing:
  rms(total) = 0.43710E+01    rms(broyden)= 0.43710E+01
  rms(prec ) = 0.45309E+01
  weight for this iteration     100.00

 eigenvalues of (default mixing * dielectric matrix)
  average eigenvalue GAMMA=   0.6788
  1.0272  0.3303

 Free energy of the ion-electron system (eV)
  ---------------------------------------------------
  alpha Z        PSCENC =      1362.55286497
  Ewald energy   TEWEN  =    -25513.06237826
  -Hartree energ DENC   =    -10207.52590187
  -exchange      EXHF   =         0.00000000
  -V(xc)+E(xc)   XCENC  =      1372.39046066
  PAW double counting   =     32868.96962160   -33997.41932807
  entropy T*S    EENTRO =         0.00000000
  eigenvalues    EBANDS =     -3369.80953237
  atomic energy  EATOM  =     37271.84271507
  Solvation  Ediel_sol  =         0.00000000
  ---------------------------------------------------
  free energy    TOTEN  =      -212.06147826 eV

  energy without entropy =     -212.06147826  energy(sigma->0) =     -212.06147826


--------------------------------------------------------------------------------------------------------




--------------------------------------- Iteration      1(   8)  ---------------------------------------


    POTLOK:  cpu time    0.1847: real time    0.1862
    SETDIJ:  cpu time    0.0179: real time    0.0180
     EDDAV:  cpu time   26.3868: real time   26.4575
 BZINTS: Fermi energy:  6.445963;276.000000 electrons
         Band energy:***********;  BLOECHL correction: -0.034186
       DOS:  cpu time    0.0422: real time    0.0423
    CHARGE:  cpu time    1.0240: real time    1.0266
    MIXING:  cpu time    0.0034: real time    0.0034
    --------------------------------------------
      LOOP:  cpu time   27.6590: real time   27.7339

 eigenvalue-minimisations  : 12108
 total energy-change (2. order) :-0.6261103E+01  (-0.2142219E+01)
 number of electron     275.9999997 magnetization      51.9512823
 augmentation part      111.2653503 magnetization      35.0293101

 Broyden mixing:
  rms(total) = 0.26531E+01    rms(broyden)= 0.26531E+01
  rms(prec ) = 0.27135E+01
  weight for this iteration     100.00

 eigenvalues of (default mixing * dielectric matrix)
  average eigenvalue GAMMA=   1.0722
  2.2531  0.5798  0.3835

 Free energy of the ion-electron system (eV)
  ---------------------------------------------------
  alpha Z        PSCENC =      1362.55286497
  Ewald energy   TEWEN  =    -25513.06237826
  -Hartree energ DENC   =    -10072.36258294
  -exchange      EXHF   =         0.00000000
  -V(xc)+E(xc)   XCENC  =      1366.37883971
  PAW double counting   =     34227.19493365   -35367.38512188
  entropy T*S    EENTRO =         0.00000000
  eigenvalues    EBANDS =     -3493.48185139
  atomic energy  EATOM  =     37271.84271507
  Solvation  Ediel_sol  =         0.00000000
  ---------------------------------------------------
  free energy    TOTEN  =      -218.32258108 eV

  energy without entropy =     -218.32258108  energy(sigma->0) =     -218.32258108


--------------------------------------------------------------------------------------------------------




--------------------------------------- Iteration      1(   9)  ---------------------------------------


    POTLOK:  cpu time    0.1694: real time    0.1701
    SETDIJ:  cpu time    0.0168: real time    0.0168
     EDDAV:  cpu time   26.6788: real time   26.7491
 BZINTS: Fermi energy:  5.881477;276.000000 electrons
         Band energy:***********;  BLOECHL correction: -0.038376
       DOS:  cpu time    0.0507: real time    0.0508
    CHARGE:  cpu time    1.1117: real time    1.1146
    MIXING:  cpu time    0.0038: real time    0.0038
    --------------------------------------------
      LOOP:  cpu time   28.0312: real time   28.1052

 eigenvalue-minimisations  : 12612
 total energy-change (2. order) :-0.4184058E+01  (-0.8221140E+00)
 number of electron     275.9999997 magnetization      50.9253036
 augmentation part      114.1274454 magnetization      37.7942196

 Broyden mixing:
  rms(total) = 0.27073E+01    rms(broyden)= 0.27073E+01
  rms(prec ) = 0.28367E+01
  weight for this iteration     100.00

 eigenvalues of (default mixing * dielectric matrix)
  average eigenvalue GAMMA=   1.1013
  2.8497  0.8033  0.3761  0.3761

 Free energy of the ion-electron system (eV)
  ---------------------------------------------------
  alpha Z        PSCENC =      1362.55286497
  Ewald energy   TEWEN  =    -25513.06237826
  -Hartree energ DENC   =     -9933.67890104
  -exchange      EXHF   =         0.00000000
  -V(xc)+E(xc)   XCENC  =      1362.37422600
  PAW double counting   =     36511.49867448   -37680.50025120
  entropy T*S    EENTRO =         0.00000000
  eigenvalues    EBANDS =     -3603.53358861
  atomic energy  EATOM  =     37271.84271507
  Solvation  Ediel_sol  =         0.00000000
  ---------------------------------------------------
  free energy    TOTEN  =      -222.50663859 eV

  energy without entropy =     -222.50663859  energy(sigma->0) =     -222.50663859


--------------------------------------------------------------------------------------------------------




--------------------------------------- Iteration      1(  10)  ---------------------------------------


    POTLOK:  cpu time    0.1773: real time    0.1779
    SETDIJ:  cpu time    0.0174: real time    0.0175
     EDDAV:  cpu time   26.9578: real time   27.0286
 BZINTS: Fermi energy:  5.958829;276.000000 electrons
         Band energy:***********;  BLOECHL correction: -0.037118
       DOS:  cpu time    0.0499: real time    0.0500
    CHARGE:  cpu time    1.1089: real time    1.1117
    MIXING:  cpu time    0.0037: real time    0.0037
    --------------------------------------------
      LOOP:  cpu time   28.3151: real time   28.3895

 eigenvalue-minimisations  : 12588
 total energy-change (2. order) : 0.3339092E+00  (-0.2457752E+00)
 number of electron     275.9999997 magnetization      50.6204912
 augmentation part      113.4172865 magnetization      37.3083882

 Broyden mixing:
  rms(total) = 0.18589E+01    rms(broyden)= 0.18589E+01
  rms(prec ) = 0.19695E+01
  weight for this iteration     100.00

 eigenvalues of (default mixing * dielectric matrix)
  average eigenvalue GAMMA=   1.0181
  2.6175  0.3741  0.7705  0.6642  0.6642

 Free energy of the ion-electron system (eV)
  ---------------------------------------------------
  alpha Z        PSCENC =      1362.55286497
  Ewald energy   TEWEN  =    -25513.06237826
  -Hartree energ DENC   =     -9949.20610086
  -exchange      EXHF   =         0.00000000
  -V(xc)+E(xc)   XCENC  =      1360.92423007
  PAW double counting   =     36548.32291310   -37720.68003202
  entropy T*S    EENTRO =         0.00000000
  eigenvalues    EBANDS =     -3582.86694144
  atomic energy  EATOM  =     37271.84271507
  Solvation  Ediel_sol  =         0.00000000
  ---------------------------------------------------
  free energy    TOTEN  =      -222.17272937 eV

  energy without entropy =     -222.17272937  energy(sigma->0) =     -222.17272937


--------------------------------------------------------------------------------------------------------




--------------------------------------- Iteration      1(  11)  ---------------------------------------


    POTLOK:  cpu time    0.1765: real time    0.1778
    SETDIJ:  cpu time    0.0178: real time    0.0179
     EDDAV:  cpu time   30.2778: real time   30.3573
 BZINTS: Fermi energy:  6.019834;276.000000 electrons
         Band energy:***********;  BLOECHL correction: -0.033988
       DOS:  cpu time    0.0513: real time    0.0515
    CHARGE:  cpu time    1.0940: real time    1.0968
    MIXING:  cpu time    0.0040: real time    0.0040
    --------------------------------------------
      LOOP:  cpu time   31.6214: real time   31.7052

 eigenvalue-minimisations  : 14280
 total energy-change (2. order) : 0.5633741E+00  (-0.2278423E-01)
 number of electron     275.9999997 magnetization      49.3140982
 augmentation part      112.9989331 magnetization      35.6181553

 Broyden mixing:
  rms(total) = 0.12185E+01    rms(broyden)= 0.12185E+01
  rms(prec ) = 0.12919E+01
  weight for this iteration     100.00

 eigenvalues of (default mixing * dielectric matrix)
  average eigenvalue GAMMA=   1.0451
  2.5824  0.9711  0.9711  0.3792  0.7996  0.5672

 Free energy of the ion-electron system (eV)
  ---------------------------------------------------
  alpha Z        PSCENC =      1362.55286497
  Ewald energy   TEWEN  =    -25513.06237826
  -Hartree energ DENC   =     -9960.27141521
  -exchange      EXHF   =         0.00000000
  -V(xc)+E(xc)   XCENC  =      1360.25101816
  PAW double counting   =     36379.53125419   -37549.89275483
  entropy T*S    EENTRO =         0.00000000
  eigenvalues    EBANDS =     -3572.56065935
  atomic energy  EATOM  =     37271.84271507
  Solvation  Ediel_sol  =         0.00000000
  ---------------------------------------------------
  free energy    TOTEN  =      -221.60935526 eV

  energy without entropy =     -221.60935526  energy(sigma->0) =     -221.60935526


--------------------------------------------------------------------------------------------------------




--------------------------------------- Iteration      1(  12)  ---------------------------------------


    POTLOK:  cpu time    0.1788: real time    0.1801
    SETDIJ:  cpu time    0.0175: real time    0.0175
     EDDAV:  cpu time   31.7583: real time   31.8425
 BZINTS: Fermi energy:  6.079402;276.000000 electrons
         Band energy:***********;  BLOECHL correction: -0.033305
       DOS:  cpu time    0.0518: real time    0.0519
    CHARGE:  cpu time    1.1253: real time    1.1282
    MIXING:  cpu time    0.0040: real time    0.0040
    --------------------------------------------
      LOOP:  cpu time   33.1357: real time   33.2243

 eigenvalue-minimisations  : 15240
 total energy-change (2. order) : 0.2028381E+00  (-0.1957587E-01)
 number of electron     275.9999997 magnetization      46.8798280
 augmentation part      112.6789265 magnetization      33.0807512

 Broyden mixing:
  rms(total) = 0.84335E+00    rms(broyden)= 0.84335E+00
  rms(prec ) = 0.88436E+00
  weight for this iteration     100.00

 eigenvalues of (default mixing * dielectric matrix)
  average eigenvalue GAMMA=   1.0973
  2.1378  1.6711  1.4701  0.3778  0.7515  0.6364  0.6364

 Free energy of the ion-electron system (eV)
  ---------------------------------------------------
  alpha Z        PSCENC =      1362.55286497
  Ewald energy   TEWEN  =    -25513.06237826
  -Hartree energ DENC   =     -9973.22660717
  -exchange      EXHF   =         0.00000000
  -V(xc)+E(xc)   XCENC  =      1359.60457584
  PAW double counting   =     36264.36435462   -37433.67029165
  entropy T*S    EENTRO =         0.00000000
  eigenvalues    EBANDS =     -3559.81175056
  atomic energy  EATOM  =     37271.84271507
  Solvation  Ediel_sol  =         0.00000000
  ---------------------------------------------------
  free energy    TOTEN  =      -221.40651714 eV

  energy without entropy =     -221.40651714  energy(sigma->0) =     -221.40651714


--------------------------------------------------------------------------------------------------------




--------------------------------------- Iteration      1(  13)  ---------------------------------------


    POTLOK:  cpu time    0.1765: real time    0.1790
    SETDIJ:  cpu time    0.0179: real time    0.0180
     EDDAV:  cpu time   29.8074: real time   29.8898
 BZINTS: Fermi energy:  6.138835;276.000000 electrons
         Band energy:***********;  BLOECHL correction: -0.034419
       DOS:  cpu time    0.0516: real time    0.0517
    CHARGE:  cpu time    1.1276: real time    1.1305
    MIXING:  cpu time    0.0045: real time    0.0045
    --------------------------------------------
      LOOP:  cpu time   31.1856: real time   31.2736

 eigenvalue-minimisations  : 13968
 total energy-change (2. order) : 0.1554846E-02  (-0.1123521E-01)
 number of electron     275.9999997 magnetization      43.9848054
 augmentation part      112.4083416 magnetization      30.4322857

 Broyden mixing:
  rms(total) = 0.46709E+00    rms(broyden)= 0.46709E+00
  rms(prec ) = 0.49038E+00
  weight for this iteration     100.00

 eigenvalues of (default mixing * dielectric matrix)
  average eigenvalue GAMMA=   1.3936
  3.4317  3.4317  0.3782  0.9288  0.9288  0.7246  0.7246  0.6003

 Free energy of the ion-electron system (eV)
  ---------------------------------------------------
  alpha Z        PSCENC =      1362.55286497
  Ewald energy   TEWEN  =    -25513.06237826
  -Hartree energ DENC   =     -9991.20415340
  -exchange      EXHF   =         0.00000000
  -V(xc)+E(xc)   XCENC  =      1358.78431580
  PAW double counting   =     36036.02570044   -37202.30174493
  entropy T*S    EENTRO =         0.00000000
  eigenvalues    EBANDS =     -3544.04228200
  atomic energy  EATOM  =     37271.84271507
  Solvation  Ediel_sol  =         0.00000000
  ---------------------------------------------------
  free energy    TOTEN  =      -221.40496230 eV

  energy without entropy =     -221.40496230  energy(sigma->0) =     -221.40496230


--------------------------------------------------------------------------------------------------------




--------------------------------------- Iteration      1(  14)  ---------------------------------------


    POTLOK:  cpu time    0.1781: real time    0.1809
    SETDIJ:  cpu time    0.0179: real time    0.0179
     EDDAV:  cpu time   30.7337: real time   30.8144
 BZINTS: Fermi energy:  6.171232;276.000000 electrons
         Band energy:***********;  BLOECHL correction: -0.032765
       DOS:  cpu time    0.0498: real time    0.0499
    CHARGE:  cpu time    1.1099: real time    1.1130
    MIXING:  cpu time    0.0046: real time    0.0046
    --------------------------------------------
      LOOP:  cpu time   32.0939: real time   32.1807

 eigenvalue-minimisations  : 14964
 total energy-change (2. order) :-0.4457188E-01  (-0.1539018E-01)
 number of electron     275.9999997 magnetization      43.0730830
 augmentation part      112.2240529 magnetization      29.9046214

 Broyden mixing:
  rms(total) = 0.18068E+00    rms(broyden)= 0.18068E+00
  rms(prec ) = 0.18825E+00
  weight for this iteration     100.00

 eigenvalues of (default mixing * dielectric matrix)
  average eigenvalue GAMMA=   1.5053
  5.3568  2.7803  1.2178  0.3781  0.8408  0.8408  0.8831  0.6249  0.6249

 Free energy of the ion-electron system (eV)
  ---------------------------------------------------
  alpha Z        PSCENC =      1362.55286497
  Ewald energy   TEWEN  =    -25513.06237826
  -Hartree energ DENC   =    -10003.86211943
  -exchange      EXHF   =         0.00000000
  -V(xc)+E(xc)   XCENC  =      1357.69238643
  PAW double counting   =     35835.73932073   -36998.99175868
  entropy T*S    EENTRO =         0.00000000
  eigenvalues    EBANDS =     -3533.36056501
  atomic energy  EATOM  =     37271.84271507
  Solvation  Ediel_sol  =         0.00000000
  ---------------------------------------------------
  free energy    TOTEN  =      -221.44953418 eV

  energy without entropy =     -221.44953418  energy(sigma->0) =     -221.44953418


--------------------------------------------------------------------------------------------------------




--------------------------------------- Iteration      1(  15)  ---------------------------------------


    POTLOK:  cpu time    0.1788: real time    0.1799
    SETDIJ:  cpu time    0.0178: real time    0.0178
     EDDAV:  cpu time   27.8463: real time   27.9209
 BZINTS: Fermi energy:  6.157143;276.000000 electrons
         Band energy:***********;  BLOECHL correction: -0.032956
       DOS:  cpu time    0.0514: real time    0.0515
    CHARGE:  cpu time    1.1114: real time    1.1143
    MIXING:  cpu time    0.0048: real time    0.0048
    --------------------------------------------
      LOOP:  cpu time   29.2105: real time   29.2892

 eigenvalue-minimisations  : 12636
 total energy-change (2. order) :-0.1811025E-01  (-0.6297646E-02)
 number of electron     275.9999997 magnetization      42.6360143
 augmentation part      112.2759537 magnetization      29.6419330

 Broyden mixing:
  rms(total) = 0.14351E+00    rms(broyden)= 0.14351E+00
  rms(prec ) = 0.15201E+00
  weight for this iteration     100.00

 eigenvalues of (default mixing * dielectric matrix)
  average eigenvalue GAMMA=   1.5468
  6.1270  2.8513  1.3598  1.0698  0.3781  0.8498  0.8498  0.6933  0.6933  0.5957

 Free energy of the ion-electron system (eV)
  ---------------------------------------------------
  alpha Z        PSCENC =      1362.55286497
  Ewald energy   TEWEN  =    -25513.06237826
  -Hartree energ DENC   =    -10002.55248573
  -exchange      EXHF   =         0.00000000
  -V(xc)+E(xc)   XCENC  =      1357.20018025
  PAW double counting   =     35822.38804219   -36985.26809564
  entropy T*S    EENTRO =         0.00000000
  eigenvalues    EBANDS =     -3534.56848727
  atomic energy  EATOM  =     37271.84271507
  Solvation  Ediel_sol  =         0.00000000
  ---------------------------------------------------
  free energy    TOTEN  =      -221.46764443 eV

  energy without entropy =     -221.46764443  energy(sigma->0) =     -221.46764443


--------------------------------------------------------------------------------------------------------




--------------------------------------- Iteration      1(  16)  ---------------------------------------


    POTLOK:  cpu time    0.1778: real time    0.1783
    SETDIJ:  cpu time    0.0177: real time    0.0178
     EDDAV:  cpu time   30.8661: real time   30.9479
 BZINTS: Fermi energy:  6.178458;276.000000 electrons
         Band energy:***********;  BLOECHL correction: -0.032838
       DOS:  cpu time    0.0512: real time    0.0513
    CHARGE:  cpu time    1.1103: real time    1.1132
    MIXING:  cpu time    0.0051: real time    0.0051
    --------------------------------------------
      LOOP:  cpu time   32.2281: real time   32.3136

 eigenvalue-minimisations  : 14364
 total energy-change (2. order) : 0.5091529E-02  (-0.9081501E-03)
 number of electron     275.9999997 magnetization      42.4948596
 augmentation part      112.1852798 magnetization      29.5009745

 Broyden mixing:
  rms(total) = 0.37849E-01    rms(broyden)= 0.37849E-01
  rms(prec ) = 0.39579E-01
  weight for this iteration     100.00

 eigenvalues of (default mixing * dielectric matrix)
  average eigenvalue GAMMA=   1.5370
  6.3136  2.7847  1.3174  1.3174  1.1131  0.3781  0.8106  0.8106  0.7264  0.7264
  0.6090

 Free energy of the ion-electron system (eV)
  ---------------------------------------------------
  alpha Z        PSCENC =      1362.55286497
  Ewald energy   TEWEN  =    -25513.06237826
  -Hartree energ DENC   =    -10007.20289292
  -exchange      EXHF   =         0.00000000
  -V(xc)+E(xc)   XCENC  =      1357.08961934
  PAW double counting   =     35780.47946601   -36943.26144675
  entropy T*S    EENTRO =         0.00000000
  eigenvalues    EBANDS =     -3529.90050036
  atomic energy  EATOM  =     37271.84271507
  Solvation  Ediel_sol  =         0.00000000
  ---------------------------------------------------
  free energy    TOTEN  =      -221.46255290 eV

  energy without entropy =     -221.46255290  energy(sigma->0) =     -221.46255290


--------------------------------------------------------------------------------------------------------




--------------------------------------- Iteration      1(  17)  ---------------------------------------


    POTLOK:  cpu time    0.1813: real time    0.1837
    SETDIJ:  cpu time    0.0183: real time    0.0183
     EDDAV:  cpu time   27.5437: real time   27.6196
 BZINTS: Fermi energy:  6.179629;276.000000 electrons
         Band energy:***********;  BLOECHL correction: -0.032784
       DOS:  cpu time    0.0489: real time    0.0490
    CHARGE:  cpu time    1.1082: real time    1.1111
    MIXING:  cpu time    0.0054: real time    0.0054
    --------------------------------------------
      LOOP:  cpu time   28.9058: real time   28.9872

 eigenvalue-minimisations  : 12420
 total energy-change (2. order) :-0.6202875E-03  (-0.4792839E-03)
 number of electron     275.9999997 magnetization      42.3959104
 augmentation part      112.1802698 magnetization      29.4155593

 Broyden mixing:
  rms(total) = 0.19383E-01    rms(broyden)= 0.19383E-01
  rms(prec ) = 0.19986E-01
  weight for this iteration     100.00

 eigenvalues of (default mixing * dielectric matrix)
  average eigenvalue GAMMA=   1.5614
  6.5194  2.7654  2.4503  1.0716  1.0716  0.3781  0.8912  0.8912  0.7200  0.7200
  0.6043  0.6533

 Free energy of the ion-electron system (eV)
  ---------------------------------------------------
  alpha Z        PSCENC =      1362.55286497
  Ewald energy   TEWEN  =    -25513.06237826
  -Hartree energ DENC   =    -10006.92604907
  -exchange      EXHF   =         0.00000000
  -V(xc)+E(xc)   XCENC  =      1357.02130980
  PAW double counting   =     35800.20750569   -36963.54617139
  entropy T*S    EENTRO =         0.00000000
  eigenvalues    EBANDS =     -3529.55297000
  atomic energy  EATOM  =     37271.84271507
  Solvation  Ediel_sol  =         0.00000000
  ---------------------------------------------------
  free energy    TOTEN  =      -221.46317319 eV

  energy without entropy =     -221.46317319  energy(sigma->0) =     -221.46317319


--------------------------------------------------------------------------------------------------------




--------------------------------------- Iteration      1(  18)  ---------------------------------------


    POTLOK:  cpu time    0.1797: real time    0.1803
    SETDIJ:  cpu time    0.0178: real time    0.0178
     EDDAV:  cpu time   29.2345: real time   29.3124
 BZINTS: Fermi energy:  6.180076;276.000000 electrons
         Band energy:***********;  BLOECHL correction: -0.032908
       DOS:  cpu time    0.0460: real time    0.0461
    CHARGE:  cpu time    1.0388: real time    1.0415
    MIXING:  cpu time    0.0050: real time    0.0051
    --------------------------------------------
      LOOP:  cpu time   30.5218: real time   30.6031

 eigenvalue-minimisations  : 14040
 total energy-change (2. order) :-0.2366150E-03  (-0.2518534E-04)
 number of electron     275.9999997 magnetization      42.3441193
 augmentation part      112.1753842 magnetization      29.3816858

 Broyden mixing:
  rms(total) = 0.86955E-02    rms(broyden)= 0.86955E-02
  rms(prec ) = 0.90482E-02
  weight for this iteration     100.00

 eigenvalues of (default mixing * dielectric matrix)
  average eigenvalue GAMMA=   1.5332
  6.6533  2.8427  2.4467  1.1481  1.1481  0.9583  0.9583  0.3781  0.7416  0.7416
  0.6883  0.6131  0.6131

 Free energy of the ion-electron system (eV)
  ---------------------------------------------------
  alpha Z        PSCENC =      1362.55286497
  Ewald energy   TEWEN  =    -25513.06237826
  -Hartree energ DENC   =    -10007.21619659
  -exchange      EXHF   =         0.00000000
  -V(xc)+E(xc)   XCENC  =      1356.97189821
  PAW double counting   =     35798.20161557   -36961.58566485
  entropy T*S    EENTRO =         0.00000000
  eigenvalues    EBANDS =     -3529.16826392
  atomic energy  EATOM  =     37271.84271507
  Solvation  Ediel_sol  =         0.00000000
  ---------------------------------------------------
  free energy    TOTEN  =      -221.46340980 eV

  energy without entropy =     -221.46340980  energy(sigma->0) =     -221.46340980


--------------------------------------------------------------------------------------------------------




--------------------------------------- Iteration      1(  19)  ---------------------------------------


    POTLOK:  cpu time    0.1729: real time    0.1744
    SETDIJ:  cpu time    0.0171: real time    0.0171
     EDDAV:  cpu time   28.8128: real time   28.8884
 BZINTS: Fermi energy:  6.181055;276.000000 electrons
         Band energy:***********;  BLOECHL correction: -0.032967
       DOS:  cpu time    0.0495: real time    0.0497
    CHARGE:  cpu time    1.0459: real time    1.0486
    MIXING:  cpu time    0.0053: real time    0.0053
    --------------------------------------------
      LOOP:  cpu time   30.1035: real time   30.1835

 eigenvalue-minimisations  : 13728
 total energy-change (2. order) :-0.5659029E-04  (-0.1024428E-04)
 number of electron     275.9999997 magnetization      42.3357286
 augmentation part      112.1711226 magnetization      29.3817000

 Broyden mixing:
  rms(total) = 0.17263E-02    rms(broyden)= 0.17262E-02
  rms(prec ) = 0.18397E-02
  weight for this iteration     100.00

 eigenvalues of (default mixing * dielectric matrix)
  average eigenvalue GAMMA=   1.5153
  6.7165  2.8539  2.4251  1.2988  1.2988  0.9877  0.9877  0.3781  0.7763  0.7763
  0.7427  0.7427  0.6144  0.6144

 Free energy of the ion-electron system (eV)
  ---------------------------------------------------
  alpha Z        PSCENC =      1362.55286497
  Ewald energy   TEWEN  =    -25513.06237826
  -Hartree energ DENC   =    -10007.56472106
  -exchange      EXHF   =         0.00000000
  -V(xc)+E(xc)   XCENC  =      1356.95152472
  PAW double counting   =     35793.67456601   -36957.00318258
  entropy T*S    EENTRO =         0.00000000
  eigenvalues    EBANDS =     -3528.85485526
  atomic energy  EATOM  =     37271.84271507
  Solvation  Ediel_sol  =         0.00000000
  ---------------------------------------------------
  free energy    TOTEN  =      -221.46346639 eV

  energy without entropy =     -221.46346639  energy(sigma->0) =     -221.46346639


--------------------------------------------------------------------------------------------------------




--------------------------------------- Iteration      1(  20)  ---------------------------------------


    POTLOK:  cpu time    0.1722: real time    0.1738
    SETDIJ:  cpu time    0.0171: real time    0.0172
     EDDAV:  cpu time   27.0677: real time   27.1404
 BZINTS: Fermi energy:  6.181415;276.000000 electrons
         Band energy:***********;  BLOECHL correction: -0.032974
       DOS:  cpu time    0.0506: real time    0.0508
    CHARGE:  cpu time    1.1216: real time    1.1319
    MIXING:  cpu time    0.0056: real time    0.0057
    --------------------------------------------
      LOOP:  cpu time   28.4349: real time   28.5197

 eigenvalue-minimisations  : 12468
 total energy-change (2. order) :-0.8822011E-05  (-0.2226966E-05)
 number of electron     275.9999997 magnetization      42.3322014
 augmentation part      112.1704397 magnetization      29.3796888

 Broyden mixing:
  rms(total) = 0.90214E-03    rms(broyden)= 0.90212E-03
  rms(prec ) = 0.92248E-03
  weight for this iteration     100.00

 eigenvalues of (default mixing * dielectric matrix)
  average eigenvalue GAMMA=   1.5129
  6.7487  2.9665  2.4020  1.8763  1.0848  1.0848  1.0067  1.0067  0.3781  0.7386
  0.7386  0.6049  0.7067  0.6747  0.6747

 Free energy of the ion-electron system (eV)
  ---------------------------------------------------
  alpha Z        PSCENC =      1362.55286497
  Ewald energy   TEWEN  =    -25513.06237826
  -Hartree energ DENC   =    -10007.64800918
  -exchange      EXHF   =         0.00000000
  -V(xc)+E(xc)   XCENC  =      1356.94837353
  PAW double counting   =     35793.55821945   -36956.89315279
  entropy T*S    EENTRO =         0.00000000
  eigenvalues    EBANDS =     -3528.76210801
  atomic energy  EATOM  =     37271.84271507
  Solvation  Ediel_sol  =         0.00000000
  ---------------------------------------------------
  free energy    TOTEN  =      -221.46347522 eV

  energy without entropy =     -221.46347522  energy(sigma->0) =     -221.46347522


--------------------------------------------------------------------------------------------------------




--------------------------------------- Iteration      1(  21)  ---------------------------------------


    POTLOK:  cpu time    0.1771: real time    0.1778
    SETDIJ:  cpu time    0.0174: real time    0.0175
     EDDAV:  cpu time   27.6560: real time   27.7291
 BZINTS: Fermi energy:  6.181780;276.000000 electrons
         Band energy:***********;  BLOECHL correction: -0.032972
       DOS:  cpu time    0.0487: real time    0.0488
    CHARGE:  cpu time    1.1080: real time    1.1111
    MIXING:  cpu time    0.0061: real time    0.0061
    --------------------------------------------
      LOOP:  cpu time   29.0134: real time   29.0903

 eigenvalue-minimisations  : 12624
 total energy-change (2. order) : 0.1908506E-05  (-0.2328871E-06)
 number of electron     275.9999997 magnetization      42.3341703
 augmentation part      112.1692250 magnetization      29.3814163

 Broyden mixing:
  rms(total) = 0.11289E-02    rms(broyden)= 0.11289E-02
  rms(prec ) = 0.11965E-02
  weight for this iteration     100.00

 eigenvalues of (default mixing * dielectric matrix)
  average eigenvalue GAMMA=   1.5048
  6.7495  3.0097  2.4421  2.1996  1.1937  1.1937  0.9932  0.9932  0.3781  0.7795
  0.7795  0.7328  0.7328  0.6679  0.6156  0.6156

 Free energy of the ion-electron system (eV)
  ---------------------------------------------------
  alpha Z        PSCENC =      1362.55286497
  Ewald energy   TEWEN  =    -25513.06237826
  -Hartree energ DENC   =    -10007.72180231
  -exchange      EXHF   =         0.00000000
  -V(xc)+E(xc)   XCENC  =      1356.94915832
  PAW double counting   =     35793.21474525   -36956.55930854
  entropy T*S    EENTRO =         0.00000000
  eigenvalues    EBANDS =     -3528.67946781
  atomic energy  EATOM  =     37271.84271507
  Solvation  Ediel_sol  =         0.00000000
  ---------------------------------------------------
  free energy    TOTEN  =      -221.46347331 eV

  energy without entropy =     -221.46347331  energy(sigma->0) =     -221.46347331


--------------------------------------------------------------------------------------------------------




--------------------------------------- Iteration      1(  22)  ---------------------------------------


    POTLOK:  cpu time    0.1780: real time    0.1785
    SETDIJ:  cpu time    0.0175: real time    0.0175
     EDDAV:  cpu time   24.0284: real time   24.0921
 BZINTS: Fermi energy:  6.181628;276.000000 electrons
         Band energy:***********;  BLOECHL correction: -0.032973
       DOS:  cpu time    0.0507: real time    0.0508
    CHARGE:  cpu time    1.1062: real time    1.1090
    MIXING:  cpu time    0.0062: real time    0.0063
    --------------------------------------------
      LOOP:  cpu time   25.3869: real time   25.4542

 eigenvalue-minimisations  : 10776
 total energy-change (2. order) :-0.1109263E-05  (-0.1033744E-06)
 number of electron     275.9999997 magnetization      42.3363229
 augmentation part      112.1698747 magnetization      29.3836449

 Broyden mixing:
  rms(total) = 0.51596E-03    rms(broyden)= 0.51596E-03
  rms(prec ) = 0.54553E-03
  weight for this iteration     100.00

 eigenvalues of (default mixing * dielectric matrix)
  average eigenvalue GAMMA=   1.4873
  6.7333  2.9822  2.6454  2.1472  1.3721  0.3781  1.0168  1.0168  1.0187  1.0187
  0.8014  0.8014  0.7444  0.7444  0.6087  0.6277  0.6277

 Free energy of the ion-electron system (eV)
  ---------------------------------------------------
  alpha Z        PSCENC =      1362.55286497
  Ewald energy   TEWEN  =    -25513.06237826
  -Hartree energ DENC   =    -10007.68739422
  -exchange      EXHF   =         0.00000000
  -V(xc)+E(xc)   XCENC  =      1356.94937849
  PAW double counting   =     35793.48471873   -36956.83194671
  entropy T*S    EENTRO =         0.00000000
  eigenvalues    EBANDS =     -3528.71143249
  atomic energy  EATOM  =     37271.84271507
  Solvation  Ediel_sol  =         0.00000000
  ---------------------------------------------------
  free energy    TOTEN  =      -221.46347442 eV

  energy without entropy =     -221.46347442  energy(sigma->0) =     -221.46347442


--------------------------------------------------------------------------------------------------------




--------------------------------------- Iteration      1(  23)  ---------------------------------------


    POTLOK:  cpu time    0.1755: real time    0.1766
    SETDIJ:  cpu time    0.0182: real time    0.0183
     EDDAV:  cpu time   22.9462: real time   23.0185
 BZINTS: Fermi energy:  6.181534;276.000000 electrons
         Band energy:***********;  BLOECHL correction: -0.032973
       DOS:  cpu time    0.0504: real time    0.0505
    --------------------------------------------
      LOOP:  cpu time   23.1904: real time   23.2639

 eigenvalue-minimisations  :  9780
 total energy-change (2. order) :-0.4968751E-07  (-0.2975108E-07)
 number of electron     275.9999997 magnetization      42.3363229
 augmentation part      112.1698747 magnetization      29.3836449

 Free energy of the ion-electron system (eV)
  ---------------------------------------------------
  alpha Z        PSCENC =      1362.55286497
  Ewald energy   TEWEN  =    -25513.06237826
  -Hartree energ DENC   =    -10007.66399250
  -exchange      EXHF   =         0.00000000
  -V(xc)+E(xc)   XCENC  =      1356.95001963
  PAW double counting   =     35793.68883910   -36957.03858280
  entropy T*S    EENTRO =         0.00000000
  eigenvalues    EBANDS =     -3528.73295968
  atomic energy  EATOM  =     37271.84271507
  Solvation  Ediel_sol  =         0.00000000
  ---------------------------------------------------
  free energy    TOTEN  =      -221.46347447 eV

  energy without entropy =     -221.46347447  energy(sigma->0) =     -221.46347447


--------------------------------------------------------------------------------------------------------




 average (electrostatic) potential at core
  the test charge radii are     0.9500  0.7215
  (the norm of the test charge is              1.0000)
       1 -78.6233       2 -78.6233       3 -78.6238       4 -78.6232       5 -78.6232
       6 -78.6238       7 -78.6233       8 -78.6233       9 -78.6232      10 -78.6238
      11 -78.6238      12 -78.6232      13 -69.7243      14 -69.7244      15 -69.7246
      16 -69.7248      17 -69.7248      18 -69.7247      19 -69.7244      20 -69.7243
      21 -69.7248      22 -69.7246      23 -69.7246      24 -69.7248      25 -69.7242
      26 -69.7242      27 -69.7248      28 -69.7248      29 -69.7248      30 -69.7248
 
 
 
 E-fermi :   6.1815     XC(G=0): -11.9045     alpha+bet :-12.3870


 spin component 1

 k-point     1 :       0.0000    0.0000    0.0000
  band No.  band energies     occupation 
      1     -49.9117      1.00000
      2     -49.9083      1.00000
      3     -49.9081      1.00000
      4     -49.9048      1.00000
      5     -49.9041      1.00000
      6     -49.9040      1.00000
      7     -49.8839      1.00000
      8     -49.8838      1.00000
      9     -49.8829      1.00000
     10     -49.8828      1.00000
     11     -49.8815      1.00000
     12     -49.8810      1.00000
     13     -49.8799      1.00000
     14     -49.8799      1.00000
     15     -49.8799      1.00000
     16     -49.8799      1.00000
     17     -49.8796      1.00000
     18     -49.8796      1.00000
     19     -49.8787      1.00000
     20     -49.8787      1.00000
[...]
 -0.000  -0.002   0.000  -0.000  -0.001  -0.000  -0.000  -0.000  -0.006  -0.000   0.000  -0.000  -0.000   0.009   0.000  -0.000
 total augmentation occupancy for first ion, spin component:           2
 -0.003   0.000   0.000  -0.010  -0.000   0.000   0.002   0.001  -0.000   0.000   0.000  -0.003  -0.002   0.000  -0.000  -0.000
  0.000  -0.003   0.000  -0.000  -0.010  -0.000  -0.000  -0.000  -0.001  -0.000   0.000   0.000   0.000   0.002   0.000  -0.000
 -0.000  -0.000  -0.003  -0.000   0.000  -0.010   0.000  -0.000   0.000   0.001  -0.002  -0.000   0.000  -0.000  -0.002   0.003
 -0.010  -0.000  -0.000   0.021   0.000  -0.000  -0.085  -0.050  -0.000   0.002   0.013   0.049   0.032   0.000  -0.001  -0.008
  0.000  -0.010  -0.000  -0.000   0.017  -0.000   0.000   0.000   0.076  -0.000  -0.000   0.000   0.000  -0.043   0.000   0.000
  0.000   0.000  -0.010  -0.000  -0.000   0.021   0.013  -0.002  -0.000  -0.050   0.085  -0.008   0.001   0.000   0.032  -0.049
  0.002   0.000   0.000  -0.085  -0.000   0.013   4.295   0.577   0.000  -0.179   0.000  -2.428  -0.471  -0.000   0.166   0.002
  0.001   0.000  -0.000  -0.050   0.000  -0.002   0.577   5.021   0.000   0.000  -0.179  -0.469  -3.026  -0.000   0.003   0.166
 -0.000  -0.001   0.000  -0.000   0.076  -0.000  -0.000   0.000   4.387   0.000  -0.000   0.000  -0.000  -2.383  -0.000   0.000
  0.000   0.000   0.001   0.002  -0.000  -0.050  -0.179   0.000   0.000   5.021  -0.577   0.166  -0.003  -0.000  -3.026   0.469
  0.000   0.000  -0.002   0.013  -0.000   0.085  -0.000  -0.179  -0.000  -0.577   4.295  -0.002   0.166   0.000   0.471  -2.428
 -0.003   0.000  -0.000   0.049   0.000  -0.008  -2.428  -0.469   0.000   0.166  -0.002   1.294   0.332  -0.000  -0.129  -0.000
 -0.002  -0.000   0.000   0.032   0.000   0.001  -0.471  -3.026  -0.000  -0.003   0.166   0.332   1.751   0.000  -0.000  -0.129
  0.000   0.002  -0.000   0.000  -0.043   0.000  -0.000  -0.000  -2.383  -0.000   0.000  -0.000   0.000   1.231   0.000  -0.000
 -0.000   0.000  -0.002  -0.001   0.000   0.032   0.166   0.003  -0.000  -3.026   0.471  -0.129   0.000   0.000   1.751  -0.332
 -0.000  -0.000   0.003  -0.008   0.000  -0.049   0.002   0.166   0.000   0.469  -2.428   0.000  -0.129  -0.000  -0.332   1.294
  0.000   0.000   0.000  -0.000   0.001  -0.000  -0.000   0.000   0.044  -0.000  -0.000   0.000  -0.000  -0.022   0.000   0.000
  0.000   0.000  -0.000  -0.000   0.001   0.000   0.000   0.000   0.007  -0.000  -0.000  -0.000  -0.000  -0.005  -0.000   0.000


------------------------ aborting loop because EDIFF is reached ----------------------------------------


 


 total charge     
 
# of ion       s       p       d       tot
------------------------------------------
    1        0.284   6.340   5.852  12.476
    2        0.284   6.340   5.854  12.478
    3        0.284   6.340   5.862  12.486
    4        0.284   6.340   5.852  12.475
    5        0.283   6.340   5.854  12.478
    6        0.284   6.340   5.865  12.489
    7        0.284   6.340   5.851  12.474
    8        0.284   6.340   5.853  12.477
    9        0.283   6.340   5.854  12.477
   10        0.283   6.340   5.868  12.492
   11        0.283   6.340   5.865  12.489
   12        0.283   6.340   5.857  12.480
   13        1.567   3.416   0.000   4.983
   14        1.567   3.416   0.000   4.983
   15        1.567   3.416   0.000   4.983
   16        1.567   3.417   0.000   4.984
   17        1.567   3.417   0.000   4.984
   18        1.567   3.416   0.000   4.983
   19        1.567   3.403   0.000   4.970
   20        1.567   3.403   0.000   4.970
   21        1.567   3.404   0.000   4.971
   22        1.567   3.404   0.000   4.971
   23        1.567   3.404   0.000   4.971
   24        1.566   3.404   0.000   4.971
   25        1.568   3.417   0.000   4.985
   26        1.568   3.416   0.000   4.985
   27        1.568   3.418   0.000   4.986
   28        1.568   3.419   0.000   4.987
   29        1.568   3.419   0.000   4.987
   30        1.568   3.418   0.000   4.987
--------------------------------------------------
tot         31.615 137.507  70.288 239.410
 


 magnetization (x)
 
# of ion       s       p       d       tot
------------------------------------------
    1        0.024   0.036   3.141   3.201
    2        0.024   0.036   3.138   3.198
    3        0.025   0.036   3.135   3.195
    4        0.025   0.036   3.140   3.201
    5        0.025   0.036   3.140   3.201
    6        0.025   0.036   3.132   3.193
    7        0.024   0.036   3.125   3.185
    8        0.024   0.036   3.122   3.183
    9        0.025   0.036   3.122   3.183
   10        0.025   0.036   3.116   3.177
   11        0.025   0.036   3.119   3.179
   12        0.025   0.036   3.123   3.183
   13        0.020   0.139   0.000   0.159
   14        0.020   0.139   0.000   0.159
   15        0.020   0.139   0.000   0.159
   16        0.020   0.140   0.000   0.160
   17        0.020   0.140   0.000   0.161
   18        0.020   0.139   0.000   0.160
   19        0.021   0.143   0.000   0.165
   20        0.021   0.143   0.000   0.164
   21        0.021   0.144   0.000   0.165
   22        0.021   0.144   0.000   0.165
   23        0.021   0.144   0.000   0.165
   24        0.021   0.144   0.000   0.166
   25        0.020   0.135   0.000   0.156
   26        0.020   0.135   0.000   0.155
   27        0.020   0.136   0.000   0.157
   28        0.020   0.137   0.000   0.158
   29        0.020   0.137   0.000   0.157
   30        0.020   0.137   0.000   0.157
--------------------------------------------------
tot          0.668   2.948  37.553  41.169
 
    CHARGE:  cpu time    1.1070: real time    1.1099
    FORLOC:  cpu time    0.0176: real time    0.0177
    FORNL :  cpu time    7.7799: real time    7.8003
    STRESS:  cpu time   23.2651: real time   23.3259
    FORCOR:  cpu time    0.1854: real time    0.1858
    FORHAR:  cpu time    0.0331: real time    0.0332
    MIXING:  cpu time    0.0064: real time    0.0065
    OFIELD:  cpu time    0.0001: real time    0.0001

  FORCE on cell =-STRESS in cart. coord.  units (eV):
  Direction    XX          YY          ZZ          XY          YZ          ZX
  --------------------------------------------------------------------------------------
  Alpha Z  1362.55286  1362.55286  1362.55286
  Ewald   -8201.75422 -8201.75360 -9109.63806     0.00000     0.00002    -0.00000
  Hartree  3503.88987  3503.88972  2999.88470    -0.00000     0.00001    -0.00000
  E(xc)   -1615.80487 -1615.80490 -1617.36864    -0.00002     0.00000    -0.00000
  Local    -165.12462  -165.12460  1230.71111    -0.00026    -0.00003     0.00000
  n-local  -743.06038  -741.95108  -744.52639    -4.16727     0.49355     0.11411
  augment  1844.63080  1844.63074  1846.55194     0.00022     0.00000    -0.00000
  Kinetic  4007.23829  4009.33391  4025.09655     7.65537    -1.98991    -5.04386
  Fock        0.00000     0.00000     0.00000     0.00000     0.00000     0.00000
  -------------------------------------------------------------------------------------
  Total      -5.82960    -5.82960    -6.73592     0.00000     0.00000    -0.00000
  in kB     -30.92033   -30.92033   -35.72749     0.00000     0.00000    -0.00000
  external pressure =      -32.52 kB  Pullay stress =        0.00 kB


 VOLUME and BASIS-vectors are now :
 -----------------------------------------------------------------------------
  energy-cutoff  :      880.00
  volume of cell :      302.07
      direct lattice vectors                 reciprocal lattice vectors
     5.035100000  0.000000000  0.000000000     0.198605787  0.114665118  0.000000000
    -2.517550000  4.360524000  0.000000000     0.000000000  0.229330236  0.000000000
     0.000000000  0.000000000 13.758100000     0.000000000  0.000000000  0.072684455

  length of vectors
     5.035100000  5.035099558 13.758100000     0.229330216  0.229330236  0.072684455


 FORCES acting on ions
    electron-ion (+dipol)            ewald-force                    non-local-force                 convergence-correction
 -----------------------------------------------------------------------------------------------
   0.156E-03 0.366E-03 -.126E+03   -.101E-02 0.523E-03 0.128E+03   0.781E-17 -.130E-17 -.289E+01   -.310E-07 0.164E-07 0.103E-03
   -.402E-03 0.580E-03 0.126E+03   0.101E-02 -.523E-03 -.128E+03   0.260E-17 0.173E-17 0.289E+01   0.510E-07 -.310E-07 -.103E-03
   -.135E-03 0.533E-03 -.126E+03   0.314E-02 -.187E-02 0.128E+03   0.304E-17 0.867E-18 -.289E+01   0.662E-06 -.387E-06 0.119E-03
   -.327E-03 0.644E-03 -.126E+03   -.220E-02 0.121E-02 0.128E+03   0.651E-17 0.217E-17 -.289E+01   -.602E-06 0.343E-06 0.124E-03
   0.814E-04 0.301E-03 0.126E+03   0.220E-02 -.121E-02 -.128E+03   -.867E-18 -.130E-17 0.289E+01   0.622E-06 -.358E-06 -.124E-03
   -.111E-03 0.412E-03 0.126E+03   -.314E-02 0.187E-02 -.128E+03   -.824E-17 0.434E-18 0.289E+01   -.642E-06 0.372E-06 -.119E-03
   0.566E-03 -.105E-02 0.126E+03   0.964E-03 -.523E-03 -.128E+03   0.629E-17 -.260E-17 0.289E+01   0.490E-07 -.246E-07 -.103E-03
   0.104E-02 -.127E-02 -.126E+03   -.964E-03 0.523E-03 0.128E+03   -.217E-18 0.434E-18 -.289E+01   -.349E-07 0.202E-07 0.103E-03
   0.105E-02 -.133E-02 0.126E+03   0.215E-02 -.121E-02 -.128E+03   -.867E-17 -.867E-18 0.289E+01   0.618E-06 -.355E-06 -.124E-03
   0.750E-03 -.110E-02 -.126E+03   0.319E-02 -.187E-02 0.128E+03   0.347E-17 -.304E-17 -.289E+01   0.661E-06 -.379E-06 0.119E-03
   0.857E-03 -.122E-02 0.126E+03   -.319E-02 0.187E-02 -.128E+03   -.520E-17 -.867E-18 0.289E+01   -.647E-06 0.374E-06 -.119E-03
   0.558E-03 -.988E-03 -.126E+03   -.215E-02 0.121E-02 0.128E+03   0.217E-18 0.000E+00 -.289E+01   -.603E-06 0.351E-06 0.124E-03
   -.424E+02 -.134E-02 0.216E-03   0.418E+02 0.106E-02 -.470E-03   0.677E+00 0.297E-17 -.575E-17   0.242E-03 0.152E-06 -.193E-07
   0.424E+02 -.868E-04 -.337E-03   -.418E+02 -.106E-02 0.470E-03   -.677E+00 -.596E-18 -.548E-17   -.242E-03 -.160E-06 0.860E-08
   -.424E+02 -.319E-02 -.583E-02   0.418E+02 0.570E-03 -.997E-03   0.677E+00 0.108E-18 0.401E-17   0.242E-03 -.140E-06 -.479E-05
   -.424E+02 0.239E-02 0.543E-02   0.418E+02 -.163E-02 0.147E-02   0.677E+00 0.309E-17 -.379E-17   0.243E-03 -.233E-07 0.479E-05
   0.424E+02 -.382E-02 -.555E-02   -.418E+02 0.163E-02 -.147E-02   -.677E+00 0.340E-17 -.228E-17   -.243E-03 0.147E-07 -.480E-05
   0.424E+02 0.176E-02 0.571E-02   -.418E+02 -.570E-03 0.997E-03   -.677E+00 -.103E-17 0.358E-17   -.242E-03 0.131E-06 0.478E-05
   0.212E+02 -.367E+02 -.308E-03   -.209E+02 0.362E+02 0.438E-03   -.338E+00 0.586E+00 -.347E-17   -.121E-03 0.210E-03 0.836E-08
   -.212E+02 0.367E+02 0.195E-03   0.209E+02 -.362E+02 -.438E-03   0.338E+00 -.586E+00 -.173E-17   0.121E-03 -.210E-03 -.191E-07
   0.212E+02 -.367E+02 -.552E-02   -.209E+02 0.362E+02 -.150E-02   -.338E+00 0.586E+00 0.520E-17   -.121E-03 0.210E-03 -.480E-05
   0.212E+02 -.367E+02 0.574E-02   -.209E+02 0.362E+02 0.964E-03   -.338E+00 0.586E+00 0.000E+00   -.121E-03 0.210E-03 0.478E-05
   -.212E+02 0.367E+02 -.585E-02   0.209E+02 -.362E+02 -.964E-03   0.338E+00 -.586E+00 0.434E-17   0.121E-03 -.210E-03 -.479E-05
   -.212E+02 0.367E+02 0.541E-02   0.209E+02 -.362E+02 0.150E-02   0.338E+00 -.586E+00 0.434E-17   0.121E-03 -.210E-03 0.479E-05
   0.212E+02 0.367E+02 0.937E-04   -.209E+02 -.362E+02 0.322E-04   -.338E+00 -.586E+00 0.477E-17   -.121E-03 -.210E-03 0.108E-07
   -.212E+02 -.367E+02 0.144E-03   0.209E+02 0.362E+02 -.322E-04   0.338E+00 0.586E+00 0.000E+00   0.121E-03 0.210E-03 0.104E-07
   0.212E+02 0.367E+02 -.407E-02   -.209E+02 -.362E+02 -.303E-02   -.338E+00 -.586E+00 0.304E-17   -.121E-03 -.210E-03 -.480E-05
   -.212E+02 -.367E+02 -.402E-02   0.209E+02 0.362E+02 -.310E-02   0.338E+00 0.586E+00 0.000E+00   0.121E-03 0.210E-03 -.480E-05
   0.212E+02 0.367E+02 0.426E-02   -.209E+02 -.362E+02 0.310E-02   -.338E+00 -.586E+00 -.867E-18   -.121E-03 -.210E-03 0.482E-05
   -.212E+02 -.367E+02 0.431E-02   0.209E+02 0.362E+02 0.303E-02   0.338E+00 0.586E+00 0.260E-17   0.121E-03 0.210E-03 0.482E-05
 -----------------------------------------------------------------------------------------------
   0.150E-01 -.165E-01 -.111E-04   -.995E-13 -.995E-13 -.192E-12   -.389E-15 0.333E-15 0.453E-15   0.121E-06 -.586E-07 -.191E-09
 
 
 POSITION                                       TOTAL-FORCE (eV/Angst)
 -----------------------------------------------------------------------------------
      0.00000      0.00000      4.88853        -0.000000      0.000000     -0.926603
      0.00000      0.00000      8.86957        -0.000000      0.000000      0.926603
     -0.00000      2.90702      0.30250        -0.000000      0.000000     -0.926603
      2.51755      1.45351      9.47456        -0.000000      0.000000     -0.926603
     -0.00000      2.90702      4.28354        -0.000000      0.000000      0.926603
      2.51755      1.45351     13.45560        -0.000000      0.000000      0.926603
      0.00000      0.00000      1.99052        -0.000000      0.000000      0.926603
      0.00000      0.00000     11.76758        -0.000000      0.000000     -0.926603
     -0.00000      2.90702     11.16259        -0.000000      0.000000      0.926603
     -0.00000      2.90702      7.18155        -0.000000      0.000000     -0.926603
      2.51755      1.45351      6.57655        -0.000000      0.000000      0.926603
      2.51755      1.45351      2.59551        -0.000000      0.000000     -0.926603
      1.54165      0.00000      3.43953         0.084613      0.000000     -0.000000
      3.49345      0.00000     10.31858        -0.084613      0.000000     -0.000000
      1.54164      2.90702     12.61160         0.084613      0.000000     -0.000000
      4.05920      1.45351      8.02555         0.084613      0.000000     -0.000000
     -1.54165      2.90702      5.73255        -0.084613      0.000000     -0.000000
      0.97591      1.45351      1.14650        -0.084613      0.000000     -0.000000
     -0.77082      1.33511      3.43953        -0.042306      0.073277     -0.000000
     -1.74673      3.02542     10.31858         0.042306     -0.073277     -0.000000
     -0.77083      4.24212     12.61160        -0.042306      0.073277     -0.000000
      1.74673      2.78861      8.02555        -0.042306      0.073277     -0.000000
      0.77082      1.57191      5.73255         0.042306     -0.073277     -0.000000
      3.28838      0.11840      1.14650         0.042306     -0.073277     -0.000000
      1.74673      3.02542      3.43953        -0.042306     -0.073277     -0.000000
      0.77082      1.33511     10.31858         0.042306      0.073277     -0.000000
     -0.77083      1.57191     12.61160        -0.042306     -0.073277     -0.000000
      0.77082      4.24212      5.73255         0.042306      0.073277     -0.000000
      1.74673      0.11840      8.02555        -0.042306     -0.073277     -0.000000
      3.28838      2.78861      1.14650         0.042306      0.073277     -0.000000
 -----------------------------------------------------------------------------------
    total drift:                                0.015002     -0.016539     -0.000011


--------------------------------------------------------------------------------------------------------



  FREE ENERGIE OF THE ION-ELECTRON SYSTEM (eV)
  ---------------------------------------------------
  free  energy   TOTEN  =      -221.46347447 eV

  energy  without entropy=     -221.46347447  energy(sigma->0) =     -221.46347447
 


--------------------------------------------------------------------------------------------------------


    POTLOK:  cpu time    0.1943: real time    0.1955


--------------------------------------------------------------------------------------------------------


     LOOP+:  cpu time  705.8774: real time  707.7982
    4ORBIT:  cpu time    0.0000: real time    0.0000
 


 total charge     
 
# of ion       s       p       d       tot
------------------------------------------
    1        0.284   6.340   5.852  12.476
    2        0.284   6.340   5.854  12.478
    3        0.284   6.340   5.862  12.486
    4        0.284   6.340   5.852  12.475
    5        0.283   6.340   5.854  12.478
    6        0.284   6.340   5.865  12.489
    7        0.284   6.340   5.851  12.474
    8        0.284   6.340   5.853  12.477
    9        0.283   6.340   5.854  12.477
   10        0.283   6.340   5.868  12.492
   11        0.283   6.340   5.865  12.489
   12        0.283   6.340   5.857  12.480
   13        1.567   3.416   0.000   4.983
   14        1.567   3.416   0.000   4.983
   15        1.567   3.416   0.000   4.983
   16        1.567   3.417   0.000   4.984
   17        1.567   3.417   0.000   4.984
   18        1.567   3.416   0.000   4.983
   19        1.567   3.403   0.000   4.970
   20        1.567   3.403   0.000   4.970
   21        1.567   3.404   0.000   4.971
   22        1.567   3.404   0.000   4.971
   23        1.567   3.404   0.000   4.971
   24        1.566   3.404   0.000   4.971
   25        1.568   3.417   0.000   4.985
   26        1.568   3.416   0.000   4.985
   27        1.568   3.418   0.000   4.986
   28        1.568   3.419   0.000   4.987
   29        1.568   3.419   0.000   4.987
   30        1.568   3.418   0.000   4.987
--------------------------------------------------
tot         31.615 137.507  70.288 239.410
 


 magnetization (x)
 
# of ion       s       p       d       tot
------------------------------------------
    1        0.024   0.036   3.141   3.201
    2        0.024   0.036   3.138   3.198
    3        0.025   0.036   3.135   3.195
    4        0.025   0.036   3.140   3.201
    5        0.025   0.036   3.140   3.201
    6        0.025   0.036   3.132   3.193
    7        0.024   0.036   3.125   3.185
    8        0.024   0.036   3.122   3.183
    9        0.025   0.036   3.122   3.183
   10        0.025   0.036   3.116   3.177
   11        0.025   0.036   3.119   3.179
   12        0.025   0.036   3.123   3.183
   13        0.020   0.139   0.000   0.159
   14        0.020   0.139   0.000   0.159
   15        0.020   0.139   0.000   0.159
   16        0.020   0.140   0.000   0.160
   17        0.020   0.140   0.000   0.161
   18        0.020   0.139   0.000   0.160
   19        0.021   0.143   0.000   0.165
   20        0.021   0.143   0.000   0.164
   21        0.021   0.144   0.000   0.165
   22        0.021   0.144   0.000   0.165
   23        0.021   0.144   0.000   0.165
   24        0.021   0.144   0.000   0.166
   25        0.020   0.135   0.000   0.156
   26        0.020   0.135   0.000   0.155
   27        0.020   0.136   0.000   0.157
   28        0.020   0.137   0.000   0.158
   29        0.020   0.137   0.000   0.157
   30        0.020   0.137   0.000   0.157
--------------------------------------------------
tot          0.668   2.948  37.553  41.169
 
 BZINTS: Fermi energy:  6.181534;276.000000 electrons
         Band energy:***********;  BLOECHL correction: -0.032973

 total amount of memory used by VASP MPI-rank0   137631. kBytes
=======================================================================

   base      :      30000. kBytes
   nonlr-proj:      11481. kBytes
   fftplans  :       7241. kBytes
   grid      :      18564. kBytes
   one-center:        248. kBytes
   wavefun   :      70097. kBytes
 
  
  
 General timing and accounting informations for this job:
 ========================================================
  
                  Total CPU time used (sec):      716.837
                            User time (sec):      714.719
                          System time (sec):        2.118
                         Elapsed time (sec):      718.845
  
                   Maximum memory used (kb):      177212.
                   Average memory used (kb):           0.
  
                          Minor page faults:        72268
                          Major page faults:            0
                 Voluntary context switches:          375
