       N       E                     dE             d eps       ncg     rms          rms(c)
DAV:   1     0.809925083931E+03    0.80993E+03   -0.23019E+04 10284   0.240E+03
DAV:   2     0.180066517915E+03   -0.62986E+03   -0.48368E+03 10648   0.355E+02
DAV:   3    -0.470159028486E+01   -0.18477E+03   -0.17745E+03  8956   0.203E+02
DAV:   4    -0.273355116315E+02   -0.22634E+02   -0.21395E+02 12608   0.637E+01
DAV:   5    -0.295563126488E+02   -0.22208E+01   -0.21471E+01 15464   0.211E+01    0.224E+01
DAV:   6    -0.442079522248E+02   -0.14652E+02   -0.57048E+01 10696   0.706E+01    0.302E+01
DAV:   7    -0.426113310452E+02    0.15966E+01   -0.88872E+00 11024   0.186E+01    0.107E+01
DAV:   8    -0.410258898804E+02    0.15854E+01   -0.33116E+00 11784   0.140E+01    0.341E+00
DAV:   9    -0.410820179306E+02   -0.56128E-01   -0.16872E+00 11944   0.105E+01    0.388E+00
DAV:  10    -0.410569857599E+02    0.25032E-01   -0.31812E-01 13060   0.383E+00    0.127E+00
DAV:  11    -0.411219223796E+02   -0.64937E-01   -0.54434E-02 15152   0.118E+00    0.635E-01
DAV:  12    -0.411581880756E+02   -0.36266E-01   -0.39096E-02 11868   0.955E-01    0.577E-01
DAV:  13    -0.411589872971E+02   -0.79922E-03   -0.14348E-02 12316   0.730E-01    0.183E-01
DAV:  14    -0.411573934466E+02    0.15939E-02   -0.12431E-02 12748   0.351E-01    0.143E-01
DAV:  15    -0.411569351981E+02    0.45825E-03   -0.12864E-03 14088   0.158E-01    0.118E-01
DAV:  16    -0.411565507113E+02    0.38449E-03   -0.79719E-04 13676   0.199E-01    0.403E-02
DAV:  17    -0.411569353839E+02   -0.38467E-03   -0.19236E-04 13636   0.649E-02    0.917E-03
DAV:  18    -0.411570526912E+02   -0.11731E-03   -0.34171E-05 15000   0.274E-02    0.345E-03
DAV:  19    -0.411570308970E+02    0.21794E-04   -0.55396E-06 13512   0.835E-03    0.174E-03
DAV:  20    -0.411570418468E+02   -0.10950E-04   -0.10493E-06 10712   0.321E-03    0.102E-03
DAV:  21    -0.411570368450E+02    0.50018E-05   -0.11504E-07  7236   0.206E-03    0.936E-04
DAV:  22    -0.411570327958E+02    0.40492E-05   -0.44457E-08  5024   0.188E-03    0.297E-04
DAV:  23    -0.411570320720E+02    0.72379E-06   -0.18293E-08  4856   0.736E-04    0.284E-04
DAV:  24    -0.411570321358E+02   -0.63863E-07   -0.11254E-08  4772   0.962E-04
   1 F= -.41157032E+02 E0= -.41157032E+02  d E =0.000000E+00  mag=    29.7445
