       N       E                     dE             d eps       ncg     rms          rms(c)
DAV:   1     0.760776448100E+03    0.76078E+03   -0.33422E+04 62116   0.258E+03
DAV:   2     0.463249652382E+02   -0.71445E+03   -0.69562E+03 59660   0.685E+02
DAV:   3    -0.140234352400E+02   -0.60348E+02   -0.58514E+02 62572   0.209E+02
DAV:   4    -0.156182944198E+02   -0.15949E+01   -0.15880E+01 62376   0.358E+01
DAV:   5    -0.156534070436E+02   -0.35113E-01   -0.35106E-01 65260   0.521E+00    0.316E+01
DAV:   6    -0.141897347892E+02    0.14637E+01   -0.27475E+01 60520   0.517E+01    0.144E+01
DAV:   7    -0.154972336508E+02   -0.13075E+01   -0.27859E+00 61268   0.145E+01    0.777E+00
DAV:   8    -0.157578682404E+02   -0.26063E+00   -0.47882E-01 64124   0.489E+00    0.299E+00
DAV:   9    -0.159573250963E+02   -0.19946E+00   -0.69164E-01 75872   0.375E+00    0.120E+00
DAV:  10    -0.160772321194E+02   -0.11991E+00   -0.30827E-01 65956   0.241E+00    0.107E+00
DAV:  11    -0.161383786583E+02   -0.61147E-01   -0.13031E-01 67132   0.139E+00    0.883E-01
DAV:  12    -0.162242223674E+02   -0.85844E-01   -0.40636E-01 77792   0.285E+00    0.690E-01
DAV:  13    -0.162857031992E+02   -0.61481E-01   -0.46432E-01 71244   0.345E+00    0.536E-01
DAV:  14    -0.163063759777E+02   -0.20673E-01   -0.76875E-02 62292   0.175E+00    0.398E-01
DAV:  15    -0.163205232258E+02   -0.14147E-01   -0.49254E-02 81144   0.113E+00    0.365E-01
DAV:  16    -0.163379667049E+02   -0.17443E-01   -0.10362E-01 74920   0.174E+00    0.312E-01
DAV:  17    -0.163477603659E+02   -0.97937E-02   -0.32594E-02 73464   0.939E-01    0.284E-01
DAV:  18    -0.163589694283E+02   -0.11209E-01   -0.41057E-02 80440   0.850E-01    0.254E-01
DAV:  19    -0.163776558752E+02   -0.18686E-01   -0.18545E-01 81688   0.182E+00    0.207E-01
DAV:  20    -0.163845634987E+02   -0.69076E-02   -0.30312E-02 67712   0.774E-01    0.158E-01
DAV:  21    -0.163892016170E+02   -0.46381E-02   -0.27092E-02 77084   0.670E-01    0.166E-01
DAV:  22    -0.163957876317E+02   -0.65860E-02   -0.56177E-02 75164   0.947E-01    0.177E-01
DAV:  23    -0.164010950628E+02   -0.53074E-02   -0.71110E-02 78348   0.116E+00    0.167E-01
DAV:  24    -0.164051330499E+02   -0.40380E-02   -0.14339E-01 80412   0.168E+00    0.179E-01
DAV:  25    -0.164063965318E+02   -0.12635E-02   -0.13469E-02 66052   0.837E-01    0.730E-02
DAV:  26    -0.164070657330E+02   -0.66920E-03   -0.66205E-02 78932   0.117E+00    0.104E-01
DAV:  27    -0.164080764395E+02   -0.10107E-02   -0.10409E-02 76096   0.673E-01    0.375E-02
DAV:  28    -0.164085603242E+02   -0.48388E-03   -0.16006E-02 78656   0.570E-01    0.390E-02
DAV:  29    -0.164086894230E+02   -0.12910E-03   -0.11014E-03 64092   0.213E-01    0.222E-02
DAV:  30    -0.164087396881E+02   -0.50265E-04   -0.39368E-04 68804   0.108E-01    0.119E-02
DAV:  31    -0.164086957670E+02    0.43921E-04   -0.30405E-04 76940   0.103E-01    0.165E-02
DAV:  32    -0.164087420457E+02   -0.46279E-04   -0.34792E-04 75156   0.949E-02    0.124E-02
DAV:  33    -0.164087462103E+02   -0.41646E-05   -0.18121E-05 59104   0.320E-02    0.107E-02
DAV:  34    -0.164087698276E+02   -0.23617E-04   -0.18054E-04 85720   0.612E-02    0.482E-03
DAV:  35    -0.164087768704E+02   -0.70427E-05   -0.15248E-05 61788   0.207E-02    0.378E-03
DAV:  36    -0.164087836817E+02   -0.68114E-05   -0.12647E-05 67200   0.148E-02    0.276E-03
DAV:  37    -0.164087891583E+02   -0.54766E-05   -0.12263E-05 66484   0.182E-02    0.306E-03
DAV:  38    -0.164087810759E+02    0.80824E-05   -0.28464E-05 75968   0.267E-02    0.177E-03
DAV:  39    -0.164087810730E+02    0.28776E-08   -0.98634E-07 53084   0.724E-03
   1 F= -.16408781E+02 E0= -.16408781E+02  d E =0.000000E+00  mag=     0.0000
