unknown system                          
   1.00000000000000     
     0.000000    2.743592    0.000000
    -4.416989    1.371796   -1.676555
    -2.740434    0.000000    2.740434
   Fe
     4
Direct
  0.499657  0.000686  0.499657
  0.750343  0.499314  0.250343
  0.250343  0.499314  0.750343
  0.999657  0.000686  0.999657
 
   40   80   60
 0.11370498454E+04 0.33073729394E+04 0.51087999331E+03 0.70664295990E+03 0.90835343124E+03
 0.77056429748E+03 0.54061109370E+03 0.34852232529E+03 0.21771720621E+03 0.13587466392E+03
 0.86360435844E+02 0.56689014144E+02 0.38763708985E+02 0.27819685354E+02 0.20603564730E+02
 0.16575778680E+02 0.13801869527E+02 0.11999731249E+02 0.10883525138E+02 0.10275394328E+02
 0.10081343711E+02 0.10275399432E+02 0.10883535306E+02 0.11999750430E+02 0.13801881694E+02
 0.16575786449E+02 0.20603569011E+02 0.27819688840E+02 0.38763734566E+02 0.56688984327E+02
 0.86360515579E+02 0.13587461303E+03 0.21771699813E+03 0.34852242060E+03 0.54061100711E+03
 0.77056457595E+03 0.90835371029E+03 0.70664288441E+03 0.51088009361E+03 0.33073730953E+04
 0.39565055337E+04 0.13075953147E+04 0.47306501694E+03 0.82669664883E+03 0.88794893264E+03
 0.69913482421E+03 0.47592051922E+03 0.30366359240E+03 0.18965582414E+03 0.11903852228E+03
 0.76378958414E+02 0.50748011568E+02 0.35174964856E+02 0.25607719195E+02 0.19369993609E+02
 0.15700813882E+02 0.13234635509E+02 0.11635766312E+02 0.10670726899E+02 0.10173846714E+02
 0.10078156637E+02 0.10369884552E+02 0.11085551496E+02 0.12345656971E+02 0.14334350831E+02
 0.17378575068E+02 0.22225635854E+02 0.29831632034E+02 0.42006096772E+02 0.61952995608E+02
 0.95004753101E+02 0.14997824149E+03 0.24016436292E+03 0.38199450836E+03 0.58373785520E+03
 0.80841081746E+03 0.90474519796E+03 0.65259336952E+03 0.55541911733E+03 0.27778639000E+04
 0.75391269655E+03 0.45259522022E+03 0.71195646962E+03 0.90675572853E+03 0.81166092426E+03
 0.59677212308E+03 0.39707532464E+03 0.25266134955E+03 0.15893306233E+03 0.10100444205E+03
 0.65842617880E+02 0.44517450594E+02 0.31445637082E+02 0.23290333533E+02 0.18038352393E+02
 0.14788070839E+02 0.12642387683E+02 0.11258930516E+02 0.10445152919E+02 0.10061609517E+02
 0.10061858833E+02 0.10444954962E+02 0.11259199434E+02 0.12642154907E+02 0.14788278473E+02
 0.18038177787E+02 0.23290654855E+02 0.31445186938E+02 0.44517948846E+02 0.65842059761E+02
 0.10100473486E+03 0.15893294993E+03 0.25266193019E+03 0.39707536236E+03 0.59677077191E+03
 0.81166326498E+03 0.90675499106E+03 0.71195559252E+03 0.45259549075E+03 0.75391352199E+03
 0.56000973180E+03 0.74060682262E+03 0.89791846581E+03 0.86070030137E+03 0.68173108394E+03
 0.47925230850E+03 0.31567744605E+03 0.20211327302E+03 0.12898473396E+03 0.83529680074E+02
 0.55636751402E+02 0.38464165401E+02 0.27807577342E+02 0.20678181324E+02 0.16669345373E+02
 0.13885599009E+02 0.12044976434E+02 0.10884689703E+02 0.10210893210E+02 0.99439197670E+01
 0.10028172069E+02 0.10497049552E+02 0.11389779507E+02 0.12871639409E+02 0.15131441176E+02
 0.18518229821E+02 0.24043048296E+02 0.32510013677E+02 0.46027796578E+02 0.67883855650E+02
 0.10351558169E+03 0.16132123650E+03 0.25304072402E+03 0.39110350080E+03 0.57794994390E+03
 0.78076964598E+03 0.90451023878E+03 0.83806500656E+03 0.63724298834E+03 0.52262274634E+03
 0.87094138505E+03 0.90827715822E+03 0.85967066748E+03 0.71334995616E+03 0.52983925153E+03
 0.36513950646E+03 0.24123136855E+03 0.15674824034E+03 0.10216702959E+03 0.67805163109E+02
 0.46363821263E+02 0.32919333626E+02 0.24411603337E+02 0.18790537004E+02 0.15344520872E+02
 0.13020365737E+02 0.11470192204E+02 0.10519040538E+02 0.99782920896E+01 0.98193566544E+01
 0.99783316909E+01 0.10519125819E+02 0.11470189791E+02 0.13020360313E+02 0.15344475724E+02
 0.18790766720E+02 0.24411392715E+02 0.32919420424E+02 0.46363731056E+02 0.67804946976E+02
 0.10216695040E+03 0.15674930868E+03 0.24123168989E+03 0.36513816509E+03 0.52984039285E+03
 0.71335075495E+03 0.85966914892E+03 0.90827671855E+03 0.87094245792E+03 0.84021581989E+03
 0.87340835639E+03 0.80794727279E+03 0.68768698133E+03 0.53588516793E+03 0.38814967289E+03
 0.26735127586E+03 0.17909023289E+03 0.11897553261E+03 0.79635827173E+02 0.54426217231E+02
 0.38337090644E+02 0.28063041764E+02 0.20976046608E+02 0.16981379511E+02 0.14129460406E+02
 0.12210543793E+02 0.10943055855E+02 0.10169088760E+02 0.97598187069E+01 0.96883022223E+01
 0.99177788367E+01 0.10508285583E+02 0.11501856907E+02 0.13079259023E+02 0.15414121051E+02
 0.18832603478E+02 0.24366766432E+02 0.32629663054E+02 0.45485861200E+02 0.65616844617E+02
 0.97160604447E+02 0.14596248864E+03 0.21929377710E+03 0.32369533808E+03 0.45962992506E+03
 0.61340722502E+03 0.75389405009E+03 0.84767061879E+03 0.88765616402E+03 0.89366498804E+03
 0.69260953103E+03 0.60780153605E+03 0.49586503064E+03 0.37822059444E+03 0.27347978990E+03
 0.19076599846E+03 0.13062651571E+03 0.89218064887E+02 0.61605631235E+02 0.43501946730E+02
 0.31668703808E+02 0.23915490757E+02 0.18645069072E+02 0.15332793225E+02 0.13041463150E+02
 0.11480577509E+02 0.10467923017E+02 0.98491611279E+01 0.95601466310E+01 0.95598313572E+01
 0.98495987663E+01 0.10467644247E+02 0.11480917137E+02 0.13041055361E+02 0.15333270652E+02
 0.18644691309E+02 0.23915893960E+02 0.31668082516E+02 0.43502436703E+02 0.61604690079E+02
 0.89219320907E+02 0.13062757017E+03 0.19076447263E+03 0.27348158585E+03 0.37821973253E+03
 0.49586472653E+03 0.60780067238E+03 0.69261033857E+03 0.73675374362E+03 0.73675348429E+03
 0.48942585247E+03 0.41997273039E+03 0.33817755215E+03 0.25788598400E+03 0.18868736302E+03
 0.13441619796E+03 0.94624012574E+02 0.66712547663E+02 0.47677163434E+02 0.34857015654E+02
 0.26280988949E+02 0.20197087697E+02 0.16543344039E+02 0.13914914971E+02 0.12081238358E+02
 0.10849601330E+02 0.10038162651E+02 0.95702987904E+01 0.93715699286E+01 0.94405909407E+01
 0.97639854246E+01 0.10400258001E+02 0.11399765533E+02 0.12916040484E+02 0.15107572128E+02
 0.18243492066E+02 0.23093669273E+02 0.30140818779E+02 0.40631114536E+02 0.56264079757E+02
 0.79374541027E+02 0.11284551535E+03 0.15964010949E+03 0.22153128002E+03 0.29711198450E+03
 0.37969441253E+03 0.45716119361E+03 0.51513753531E+03 0.54216145883E+03 0.53300495437E+03
 0.32739160693E+03 0.27890797054E+03 0.22491590919E+03 0.17341490258E+03 0.12937782174E+03
 0.94639648175E+02 0.68736175535E+02 0.50171209862E+02 0.37167215768E+02 0.28190405927E+02
 0.21982107531E+02 0.17650317332E+02 0.14755911689E+02 0.12709301072E+02 0.11274604960E+02
 0.10307810398E+02 0.96738188508E+01 0.93262865337E+01 0.92077254876E+01 0.93263755992E+01
 0.96739071592E+01 0.10307901112E+02 0.11274503303E+02 0.12709389136E+02 0.14755814277E+02
 0.17650592538E+02 0.21981691018E+02 0.28190549503E+02 0.37166794632E+02 0.50171573410E+02
 0.68737651381E+02 0.94638431797E+02 0.12938028724E+03 0.17341412574E+03 0.22491357103E+03
 0.27890831791E+03 0.32739247237E+03 0.36131851909E+03 0.37351928451E+03 0.36131825912E+03
 0.21445328924E+03 0.18290488867E+03 0.14887598817E+03 0.11677996269E+03 0.89258425841E+02
 0.67249527276E+02 0.50515542744E+02 0.38222182929E+02 0.29380012253E+02 0.23096574766E+02
 0.18530284374E+02 0.15500450927E+02 0.13292465817E+02 0.11711103042E+02 0.10611237478E+02
 0.98547759248E+01 0.93784232098E+01 0.91233541503E+01 0.90764594139E+01 0.92231550249E+01
 0.95870954989E+01 0.10193345732E+02 0.11112605700E+02 0.12431237476E+02 0.14307630183E+02
 0.16903843690E+02 0.20370634709E+02 0.25977912000E+02 0.33423871731E+02 0.43877883094E+02
 0.58265844187E+02 0.77559901483E+02 0.10235064660E+03 0.13238044933E+03 0.16588947207E+03
 0.19931674075E+03 0.22762146626E+03 0.24554574572E+03 0.24933722660E+03 0.23817284106E+03
 0.14043711798E+03 0.12054116300E+03 0.99495830604E+02 0.79689755411E+02 0.62560806427E+02
 0.48644472428E+02 0.37826781564E+02 0.29674413810E+02 0.23662974056E+02 0.19097992712E+02
 0.16061933975E+02 0.13783186029E+02 0.12112656338E+02 0.10919236099E+02 0.10072659753E+02
 0.94984878662E+01 0.91408941698E+01 0.89696666100E+01 0.89703133432E+01 0.91404022105E+01
 0.94992346288E+01 0.10072033246E+02 0.10919866278E+02 0.12111840707E+02 0.13784195200E+02
 0.16060897012E+02 0.19098834703E+02 0.23661777514E+02 0.29675436020E+02 0.37827753894E+02
 0.48642424145E+02 0.62565412710E+02 0.79688978045E+02 0.99492822695E+02 0.12053952493E+03
 0.14043957887E+03 0.15617877698E+03 0.16492020929E+03 0.16492000951E+03 0.15617814653E+03
 0.93252266981E+02 0.80830470320E+02 0.67846898623E+02 0.55611212950E+02 0.44914183989E+02
 0.36054683285E+02 0.29024544548E+02 0.23595354679E+02 0.19294796505E+02 0.16377104977E+02
 0.14128463967E+02 0.12436409464E+02 0.11199457549E+02 0.10297996401E+02 0.96631280455E+01
 0.92308918926E+01 0.89742155729E+01 0.88653429333E+01 0.89022680282E+01 0.90819376264E+01
 0.94241463484E+01 0.99513085892E+01 0.10712248642E+02 0.11768785869E+02 0.13219171443E+02
 0.15174939310E+02 0.17752087084E+02 0.20996449125E+02 0.26130536066E+02 0.32321171479E+02
 0.40250253755E+02 0.50036350670E+02 0.61577742930E+02 0.74317607574E+02 0.87211195554E+02
 0.98733423411E+02 0.10718675288E+03 0.11111024606E+03 0.10978182202E+03 0.10344900807E+03
 0.63411762376E+02 0.55648166799E+02 0.47595836865E+02 0.39963786558E+02 0.33205040942E+02
 0.27529272649E+02 0.22904685722E+02 0.19097055699E+02 0.16412590782E+02 0.14287798824E+02
 0.12648515848E+02 0.11421970631E+02 0.10506823391E+02 0.98405864430E+01 0.93666304106E+01
 0.90541950149E+01 0.88735898118E+01 0.88165573353E+01 0.88736686285E+01 0.90543823212E+01
 0.93667055521E+01 0.98406101073E+01 0.10506561138E+02 0.11422200741E+02 0.12648500961E+02
 0.14287445577E+02 0.16413081136E+02 0.19095550504E+02 0.22909088004E+02 0.27523269652E+02
 0.33211258511E+02 0.39965563624E+02 0.47591243660E+02 0.55645720139E+02 0.63412770095E+02
 0.69972163259E+02 0.74383915022E+02 0.75942421862E+02 0.74383147660E+02 0.69969649343E+02
 0.44497020541E+02 0.39595035630E+02 0.34529914639E+02 0.29720041558E+02 0.25407648223E+02
 0.21264728781E+02 0.18525802920E+02 0.16162091953E+02 0.14243800059E+02 0.12725537394E+02
 0.11561458178E+02 0.10675141829E+02 0.10012977187E+02 0.95275269597E+01 0.91871087580E+01
 0.89653296629E+01 0.88478002579E+01 0.88242898165E+01 0.88943915680E+01 0.90620922765E+01
 0.93411790621E+01 0.97502279904E+01 0.10319766456E+02 0.11086588291E+02 0.12104977758E+02
 0.13435913538E+02 0.15151024003E+02 0.17287718642E+02 0.19851769076E+02 0.23474177166E+02
 0.27485330055E+02 0.32075885281E+02 0.37057531243E+02 0.42098340194E+02 0.46727581650E+02
 0.50412027240E+02 0.52655268393E+02 0.53123576784E+02 0.51741159336E+02 0.48723756138E+02
 0.32367297944E+02 0.29243786631E+02 0.26026679110E+02 0.22923288799E+02 0.19882068569E+02
 0.17634771479E+02 0.15652740622E+02 0.14002073211E+02 0.12658974385E+02 0.11605255093E+02
 0.10785253063E+02 0.10160816979E+02 0.96931257781E+01 0.93529715489E+01 0.91171999592E+01
 0.89694942687E+01 0.88983605743E+01 0.88983889214E+01 0.89696680806E+01 0.91173995736E+01
 0.93529800027E+01 0.96929946423E+01 0.10160623938E+02 0.10785775277E+02 0.11604331078E+02
 0.12660172336E+02 0.13999929421E+02 0.15656985915E+02 0.17631100015E+02 0.19882375600E+02
 0.22931341546E+02 0.26021198293E+02 0.29240206473E+02 0.32366814569E+02 0.35114693165E+02
 0.37169548635E+02 0.38272103857E+02 0.38270469907E+02 0.37167862979E+02 0.35111958880E+02
 0.24494997575E+02 0.22453775920E+02 0.20093398476E+02 0.18273276881E+02 0.16516290741E+02
 0.14943000434E+02 0.13588485758E+02 0.12456247442E+02 0.11548636990E+02 0.10827440274E+02
 0.10270629488E+02 0.98467550542E+01 0.95338627028E+01 0.93107134927E+01 0.91603689994E+01
 0.90704787141E+01 0.90332728255E+01 0.90455639974E+01 0.91081792921E+01 0.92272260627E+01
 0.94122016593E+01 0.96781487167E+01 0.10043311929E+02 0.10530694989E+02 0.11166012522E+02
 0.11977133814E+02 0.12993015939E+02 0.14236281704E+02 0.15706948574E+02 0.17373669269E+02
 0.19177976118E+02 0.21007830795E+02 0.23494415401E+02 0.25437536956E+02 0.27058835329E+02
 0.28190440916E+02 0.28702491006E+02 0.28531747896E+02 0.27697536829E+02 0.26301396367E+02
 0.19097322324E+02 0.17867789782E+02 0.16561984255E+02 0.15280641366E+02 0.14099445378E+02
 0.13041031744E+02 0.12138140826E+02 0.11398544339E+02 0.10799443995E+02 0.10333416932E+02
 0.99770327454E+01 0.97150607952E+01 0.95276102293E+01 0.93995889425E+01 0.93181221225E+01
 0.92733621014E+01 0.92592673338E+01 0.92734751214E+01 0.93184048857E+01 0.93996461032E+01
 0.95275661291E+01 0.97147215236E+01 0.99774667084E+01 0.10332834206E+02 0.10800069737E+02
 0.11397423856E+02 0.12140467701E+02 0.13040469430E+02 0.14096764343E+02 0.15287527084E+02
 0.16562060324E+02 0.17861560542E+02 0.19095728254E+02 0.20163933161E+02 0.20995471937E+02
 0.22037995247E+02 0.22252018359E+02 0.22035524992E+02 0.20993272947E+02 0.20161901770E+02
 0.15762063599E+02 0.14909272168E+02 0.14038247644E+02 0.13193792123E+02 0.12413022248E+02
 0.11737704803E+02 0.11169747093E+02 0.10704503253E+02 0.10345364632E+02 0.10074717767E+02
 0.98831329376E+01 0.97529464155E+01 0.96711488011E+01 0.96236122790E+01 0.95986010078E+01
 0.95876060963E+01 0.95854800059E+01 0.95916210046E+01 0.96086131522E+01 0.96439069825E+01
 0.97070712243E+01 0.98112733524E+01 0.99701090081E+01 0.10199522845E+02 0.10513020719E+02
 0.10923332261E+02 0.11439258838E+02 0.12063516001E+02 0.12791333948E+02 0.13605238268E+02
 0.14475312916E+02 0.15346829768E+02 0.16163682983E+02 0.16870973002E+02 0.17405721625E+02
 0.17718598579E+02 0.17783643834E+02 0.17594618746E+02 0.17165826202E+02 0.16536816703E+02
 0.13416369545E+02 0.12853495030E+02 0.12286204074E+02 0.11754199335E+02 0.11284422333E+02
 0.10878868945E+02 0.10551668001E+02 0.10307748330E+02 0.10134205593E+02 0.10027634309E+02
 0.99725087952E+01 0.99577203056E+01 0.99674692835E+01 0.99886423042E+01 0.10009943972E+02
 0.10022837307E+02 0.10023043429E+02 0.10010086098E+02 0.99889293245E+01 0.99673520787E+01
 0.99575317624E+01 0.99725741317E+01 0.10027441155E+02 0.10134491976E+02 0.10307005077E+02
 0.10553422799E+02 0.10878802866E+02 0.11282704993E+02 0.11757592431E+02 0.12288813883E+02
 0.12849783673E+02 0.13412083034E+02 0.13934148660E+02 0.14368955604E+02 0.14681570171E+02
 0.14845878645E+02 0.14844709255E+02 0.14679023676E+02 0.14366370954E+02 0.13933187570E+02
 0.11784630683E+02 0.11442221531E+02 0.11111965926E+02 0.10810417825E+02 0.10551557504E+02
 0.10356706894E+02 0.10225059457E+02 0.10152185545E+02 0.10139391167E+02 0.10172474374E+02
 0.10241664836E+02 0.10329791169E+02 0.10422779105E+02 0.10505304712E+02 0.10564506356E+02
 0.10591530101E+02 0.10582188175E+02 0.10538307618E+02 0.10466005023E+02 0.10376887646E+02
 0.10284259428E+02 0.10203821398E+02 0.10150465904E+02 0.10139563818E+02 0.10180494505E+02
 0.10282133105E+02 0.10447070765E+02 0.10673481161E+02 0.10953798495E+02 0.11274008768E+02
 0.11617265172E+02 0.11956065441E+02 0.12265076659E+02 0.12521154550E+02 0.12698506803E+02
 0.12777515136E+02 0.12752156111E+02 0.12623971205E+02 0.12403990471E+02 0.12115290548E+02
 0.10692441709E+02 0.10506326588E+02 0.10338911645E+02 0.10209349149E+02 0.10130942010E+02
 0.10101711544E+02 0.10128495871E+02 0.10212390250E+02 0.10340402861E+02 0.10505097414E+02
 0.10689112489E+02 0.10876872697E+02 0.11048213433E+02 0.11185724858E+02 0.11274788062E+02
 0.11305690261E+02 0.11275047681E+02 0.11185903575E+02 0.11048346865E+02 0.10876600150E+02
 0.10689167113E+02 0.10504777741E+02 0.10340865265E+02 0.10211558434E+02 0.10130139068E+02
 0.10101669053E+02 0.10129944686E+02 0.10211719402E+02 0.10340518918E+02 0.10505149073E+02
 0.10688816346E+02 0.10876923166E+02 0.11049753390E+02 0.11186549836E+02 0.11273914366E+02
 0.11304471287E+02 0.11272738649E+02 0.11183338151E+02 0.11047646980E+02 0.10878384781E+02
 0.99633100102E+01 0.99046005817E+01 0.98779332659E+01 0.98910982957E+01 0.99506308058E+01
 0.10069005865E+02 0.10242927444E+02 0.10464724243E+02 0.10730343958E+02 0.11021874634E+02
 0.11322234215E+02 0.11607421463E+02 0.11855411030E+02 0.12043923111E+02 0.12155020673E+02
 0.12177699280E+02 0.12109754360E+02 0.11958198900E+02 0.11737497737E+02 0.11468243013E+02
 0.11172637307E+02 0.10873685811E+02 0.10593279774E+02 0.10347696337E+02 0.10148274603E+02
 0.10003395253E+02 0.99133751984E+01 0.98770478232E+01 0.98865718389E+01 0.99325602175E+01
 0.10003840327E+02 0.10084627975E+02 0.10161808474E+02 0.10225813458E+02 0.10265836203E+02
 0.10273943297E+02 0.10251012343E+02 0.10199467822E+02 0.10125444463E+02 0.10042116649E+02
 0.95246027551E+01 0.95662543109E+01 0.96481861381E+01 0.97821873679E+01 0.99767633529E+01
 0.10227943081E+02 0.10537784537E+02 0.10902505835E+02 0.11304702072E+02 0.11728256822E+02
 0.12147258421E+02 0.12534726590E+02 0.12859383695E+02 0.13093522746E+02 0.13216404575E+02
 0.13216480846E+02 0.13093837476E+02 0.12859441393E+02 0.12534738018E+02 0.12147093493E+02
 0.11727982945E+02 0.11305054847E+02 0.10901910040E+02 0.10539065166E+02 0.10228124451E+02
 0.99759699275E+01 0.97843431897E+01 0.96492694942E+01 0.95652010856E+01 0.95225481271E+01
 0.95098239505E+01 0.95177586752E+01 0.95354889716E+01 0.95514628055E+01 0.95602354098E+01
 0.95602497426E+01 0.95494878811E+01 0.95324441405E+01 0.95174612295E+01 0.95114847806E+01
 0.92928209186E+01 0.94269792610E+01 0.96151064857E+01 0.98630907041E+01 0.10175031651E+02
 0.10559473685E+02 0.11010578143E+02 0.11516395837E+02 0.12064269527E+02 0.12627533109E+02
 0.13174814458E+02 0.13666687214E+02 0.14065757660E+02 0.14338388863E+02 0.14459665366E+02
 0.14418863137E+02 0.14219414865E+02 0.13880102082E+02 0.13429953098E+02 0.12906059287E+02
 0.12345558985E+02 0.11786757833E+02 0.11256981703E+02 0.10776325769E+02 0.10358955189E+02
 0.10009712402E+02 0.97294686357E+01 0.95138923519E+01 0.93554262545E+01 0.92449133329E+01
 0.91736674154E+01 0.91297985394E+01 0.91050631986E+01 0.90941335952E+01 0.90913274701E+01
 0.90924517913E+01 0.91004251780E+01 0.91177127891E+01 0.91488768629E+01 0.92038914810E+01
 0.92422264965E+01 0.94570026292E+01 0.97365885412E+01 0.10091900795E+02 0.10530293314E+02
 0.11047967674E+02 0.11642689074E+02 0.12305042675E+02 0.13009297656E+02 0.13723466306E+02
 0.14402855954E+02 0.15000531494E+02 0.15467701073E+02 0.15765165731E+02 0.15867449721E+02
 0.15765318301E+02 0.15467910436E+02 0.15000527510E+02 0.14402921056E+02 0.13722892310E+02
 0.13009740807E+02 0.12304468589E+02 0.11643888653E+02 0.11048099625E+02 0.10529831149E+02
 0.10093677883E+02 0.97376895590E+01 0.94559587999E+01 0.92403117231E+01 0.90809513327E+01
 0.89666037041E+01 0.88898346752E+01 0.88416466292E+01 0.88145050902E+01 0.88048912591E+01
 0.88136153669E+01 0.88396667173E+01 0.88881372827E+01 0.89666602616E+01 0.90817997139E+01
 0.93264254005E+01 0.96217069543E+01 0.99981402016E+01 0.10463384584E+02 0.11022484265E+02
 0.11682019157E+02 0.12434355448E+02 0.13260535432E+02 0.14132707842E+02 0.15003315191E+02
 0.15816610415E+02 0.16511119469E+02 0.17033712073E+02 0.17339891030E+02 0.17402526383E+02
 0.17215865988E+02 0.16796870452E+02 0.16182065876E+02 0.15421361183E+02 0.14571624504E+02
 0.13693537265E+02 0.12839421552E+02 0.12046532704E+02 0.11340404070E+02 0.10729887661E+02
 0.10217758867E+02 0.97990504170E+01 0.94662059132E+01 0.92077192050E+01 0.90130846543E+01
 0.88720490682E+01 0.87736426863E+01 0.87105056863E+01 0.86781335921E+01 0.86727899799E+01
 0.86918330820E+01 0.87394799126E+01 0.88193992525E+01 0.89368542690E+01 0.91021879759E+01
 0.95370338835E+01 0.99066176670E+01 0.10372244906E+02 0.10946605682E+02 0.11639446897E+02
 0.12447458824E+02 0.13365020542E+02 0.14369446188E+02 0.15414035082E+02 0.16439228929E+02
 0.17376931031E+02 0.18159310468E+02 0.18720343110E+02 0.19012872209E+02 0.19012934954E+02
 0.18720427721E+02 0.18159474012E+02 0.17377037897E+02 0.16438765281E+02 0.15414122017E+02
 0.14369187049E+02 0.13365962336E+02 0.12447688171E+02 0.11639113662E+02 0.10948254610E+02
 0.10373063510E+02 0.99060093542E+01 0.95351101746E+01 0.92486545136E+01 0.90329519965E+01
 0.88759455910E+01 0.87683107328E+01 0.87015689411E+01 0.86689021524E+01 0.86679549119E+01
 0.87005287981E+01 0.87673441618E+01 0.88746092246E+01 0.90324678343E+01 0.92496246468E+01
 0.98422298676E+01 0.10287832704E+02 0.10848918829E+02 0.11537658514E+02 0.12361784318E+02
 0.13328243602E+02 0.14420713740E+02 0.15600928498E+02 0.16812485829E+02 0.17984709911E+02
 0.19034971077E+02 0.19876752823E+02 0.20446447950E+02 0.20699562014E+02 0.20614504365E+02
 0.20198808304E+02 0.19486112866E+02 0.18531093691E+02 0.17408435786E+02 0.16207243932E+02
 0.15002597290E+02 0.13859816196E+02 0.12828042286E+02 0.11931283697E+02 0.11175500102E+02
 0.10552949604E+02 0.10052727092E+02 0.96597688579E+01 0.93579649578E+01 0.91328927006E+01
 0.89717149345E+01 0.88619610554E+01 0.87960307654E+01 0.87692471207E+01 0.87791569650E+01
 0.88245358385E+01 0.89116851810E+01 0.90466908702E+01 0.92371683931E+01 0.94972126603E+01
 0.10238455674E+02 0.10754099701E+02 0.11403667908E+02 0.12204729905E+02 0.13170878974E+02
 0.14296535935E+02 0.15559443540E+02 0.16910017683E+02 0.18279617173E+02 0.19576832606E+02
 0.20700948757E+02 0.22087958971E+02 0.22748191145E+02 0.22977459375E+02 0.22748192087E+02
 0.22088031129E+02 0.20701255018E+02 0.19576427226E+02 0.18279593863E+02 0.16909653962E+02
 0.15560519432E+02 0.14296592773E+02 0.13170779548E+02 0.12206246488E+02 0.11404313918E+02
 0.10753500757E+02 0.10237113032E+02 0.98363290302E+01 0.95341845739E+01 0.93123780709E+01
 0.91554855331E+01 0.90530385820E+01 0.89954871410E+01 0.89765796172E+01 0.89943450151E+01
 0.90526965934E+01 0.91548643645E+01 0.93106077578E+01 0.95338615548E+01 0.98376302078E+01
 0.10698464102E+02 0.11282903975E+02 0.12022658152E+02 0.12937796367E+02 0.14036780342E+02
 0.15317641486E+02 0.16739147844E+02 0.18243612048E+02 0.19741535139E+02 0.21123330716E+02
 0.22934047098E+02 0.24008054466E+02 0.24646747420E+02 0.24778179008E+02 0.24387797132E+02
 0.23518762817E+02 0.22269421034E+02 0.20452122920E+02 0.19001331310E+02 0.17484928840E+02
 0.16013410985E+02 0.14656607137E+02 0.13462957261E+02 0.12456301500E+02 0.11632041803E+02
 0.10973596033E+02 0.10459491719E+02 0.10069458453E+02 0.97790877127E+01 0.95705739359E+01
 0.94283438256E+01 0.93384566943E+01 0.92912425116E+01 0.92824925400E+01 0.93107233012E+01
 0.93777632671E+01 0.94928511054E+01 0.96674432750E+01 0.99130663133E+01 0.10249407915E+02
 0.11217627300E+02 0.11860016601E+02 0.12678703338E+02 0.13696503555E+02 0.14925790654E+02
 0.16341600867E+02 0.17901178128E+02 0.19531555529E+02 0.21113715814E+02 0.23222542120E+02
 0.24693715557E+02 0.25775175406E+02 0.26349758235E+02 0.26349672953E+02 0.25775211780E+02
 0.24693936033E+02 0.23222405425E+02 0.21113580492E+02 0.19531145742E+02 0.17902154457E+02
 0.16341787501E+02 0.14925653121E+02 0.13698007240E+02 0.12679297186E+02 0.11859257010E+02
 0.11216563220E+02 0.10725893726E+02 0.10360384317E+02 0.10097414583E+02 0.99161126032E+01
 0.97968011021E+01 0.97257813875E+01 0.96929498657E+01 0.96927154302E+01 0.97251923426E+01
 0.97966646158E+01 0.99151731567E+01 0.10095682230E+02 0.10360636506E+02 0.10726772881E+02
 0.11768687785E+02 0.12459938205E+02 0.13350164426E+02 0.14460855634E+02 0.15793119231E+02
 0.17319517671E+02 0.18990578237E+02 0.20693015790E+02 0.22928257164E+02 0.24721812578E+02
 0.26216759817E+02 0.27260339681E+02 0.27731223490E+02 0.27572915932E+02 0.26803511488E+02
 0.25516479781E+02 0.23851502889E+02 0.21977404946E+02 0.19844951294E+02 0.18142096143E+02
 0.16534170499E+02 0.15100104793E+02 0.13875583408E+02 0.12878967919E+02 0.12092056281E+02
 0.11489959116E+02 0.11042415289E+02 0.10722477013E+02 0.10500799579E+02 0.10355057963E+02
 0.10264643814E+02 0.10214602105E+02 0.10194456399E+02 0.10201230613E+02 0.10235715444E+02
 0.10304358759E+02 0.10420748156E+02 0.10602396023E+02 0.10868029774E+02 0.11247975540E+02
 0.12341867649E+02 0.13065540755E+02 0.14003610224E+02 0.15182929773E+02 0.16592568653E+02
 0.18200251867E+02 0.19930373991E+02 0.22123972695E+02 0.24109926335E+02 0.25924081421E+02
 0.27387887689E+02 0.28342481438E+02 0.28674748166E+02 0.28342438631E+02 0.27388119881E+02
 0.25923872965E+02 0.24110015030E+02 0.22123406521E+02 0.19931293700E+02 0.18200430653E+02
 0.16592594854E+02 0.15184230069E+02 0.14004208073E+02 0.13064867106E+02 0.12340562814E+02
 0.11805581031E+02 0.11423815929E+02 0.11163308394E+02 0.10997269843E+02 0.10900070883E+02
 0.10847239662E+02 0.10823363520E+02 0.10816401370E+02 0.10823535391E+02 0.10846870303E+02
 0.10899543961E+02 0.10996346448E+02 0.11162092596E+02 0.11424058864E+02 0.11805907317E+02
 0.12909400571E+02 0.13645737690E+02 0.14614601805E+02 0.15834165890E+02 0.17282639012E+02
 0.18929512160E+02 0.20672207102E+02 0.22971861334E+02 0.24961597693E+02 0.26729282898E+02
 0.28102699968E+02 0.28923374385E+02 0.29093353375E+02 0.28589515005E+02 0.27476382564E+02
 0.25883877626E+02 0.23982663907E+02 0.21544732361E+02 0.19796623006E+02 0.18085644479E+02
 0.16530413488E+02 0.15192736020E+02 0.14099294643E+02 0.13251153260E+02 0.12621916354E+02
 0.12177645493E+02 0.11881157345E+02 0.11703989356E+02 0.11610060342E+02 0.11568759995E+02
 0.11555739764E+02 0.11553861480E+02 0.11553771298E+02 0.11553819485E+02 0.11560488390E+02
 0.11585139903E+02 0.11649461973E+02 0.11780897050E+02 0.12012548942E+02 0.12379117043E+02
 0.13460840595E+02 0.14181359014E+02 0.15148657786E+02 0.16369374499E+02 0.17822708537E+02
 0.19462328931E+02 0.21168638435E+02 0.23490908742E+02 0.25409922126E+02 0.27070484320E+02
 0.28299873923E+02 0.28955616769E+02 0.28955676435E+02 0.28300047861E+02 0.27070340052E+02
 0.25409852733E+02 0.23490639994E+02 0.21169216337E+02 0.19462667335E+02 0.17822698801E+02
 0.16370736935E+02 0.15148981973E+02 0.14180912913E+02 0.13459492204E+02 0.12951335498E+02
 0.12624467100E+02 0.12440701338E+02 0.12359098626E+02 0.12344673604E+02 0.12367186616E+02
 0.12399259101E+02 0.12421353619E+02 0.12421487309E+02 0.12399791660E+02 0.12366342507E+02
 0.12344147181E+02 0.12358484151E+02 0.12439833961E+02 0.12624127447E+02 0.12951785078E+02
 0.13963277232E+02 0.14645529779E+02 0.15581784395E+02 0.16769542001E+02 0.18182902683E+02
 0.19766588566E+02 0.21396691620E+02 0.23637051310E+02 0.25422018551E+02 0.26918188287E+02
 0.27965203561E+02 0.28438081284E+02 0.28278364540E+02 0.27507030920E+02 0.26216536100E+02
 0.24555322400E+02 0.22694291315E+02 0.20581435869E+02 0.18961118213E+02 0.17448496429E+02
 0.16145259488E+02 0.15080757571E+02 0.14275595307E+02 0.13708716114E+02 0.13353248651E+02
 0.13169223160E+02 0.13110307705E+02 0.13144452874E+02 0.13231571495E+02 0.13331455176E+02
 0.13410930989E+02 0.13448409309E+02 0.13435383534E+02 0.13375035135E+02 0.13283153954E+02
 0.13184469950E+02 0.13118491413E+02 0.13127015391E+02 0.13243777268E+02 0.13505583582E+02
 0.14407840277E+02 0.15021035606E+02 0.15889878452E+02 0.17004767032E+02 0.18338961526E+02
 0.19826181083E+02 0.21341487640E+02 0.23401111453E+02 0.24996853921E+02 0.26288361128E+02
 0.27130726850E+02 0.27424847895E+02 0.27131029990E+02 0.26288200497E+02 0.24996782986E+02
 0.23400756162E+02 0.21342225535E+02 0.19826256520E+02 0.18339238387E+02 0.17005879063E+02
 0.15890305972E+02 0.15020353442E+02 0.14406844266E+02 0.14025834415E+02 0.13846380522E+02
 0.13822100476E+02 0.13921807539E+02 0.14093920784E+02 0.14287975428E+02 0.14459361912E+02
 0.14576855064E+02 0.14618595194E+02 0.14577309430E+02 0.14459497426E+02 0.14287081872E+02
 0.14093537267E+02 0.13921579640E+02 0.13820941780E+02 0.13845910682E+02 0.14026508848E+02
 0.14768812217E+02 0.15286474641E+02 0.16062190543E+02 0.17071777452E+02 0.18287585029E+02
 0.19642518944E+02 0.21011748712E+02 0.22805823265E+02 0.24175219128E+02 0.25243484475E+02
 0.25882091574E+02 0.26013611729E+02 0.25622399120E+02 0.24756474434E+02 0.23518470592E+02
 0.21673159514E+02 0.20331382451E+02 0.18955636963E+02 0.17654951169E+02 0.16539038597E+02
 0.15642859329E+02 0.14996811044E+02 0.14602145199E+02 0.14428493312E+02 0.14445620995E+02
 0.14618890627E+02 0.14889680388E+02 0.15200405337E+02 0.15502497782E+02 0.15748416396E+02
 0.15899996012E+02 0.15930750110E+02 0.15837966071E+02 0.15634856819E+02 0.15356660891E+02
 0.15043181270E+02 0.14746436379E+02 0.14517133488E+02 0.14415347060E+02 0.14489104671E+02
 0.15039325159E+02 0.15437368242E+02 0.16088292661E+02 0.16963907641E+02 0.18032251044E+02
 0.19225165329E+02 0.20427011599E+02 0.21542674174E+02 0.23036133374E+02 0.23875195885E+02
 0.24323342795E+02 0.24323635673E+02 0.23875178142E+02 0.23035999420E+02 0.21542390592E+02
 0.20427565060E+02 0.19225413967E+02 0.18032409956E+02 0.16965127123E+02 0.16088479220E+02
 0.15436826345E+02 0.15038172838E+02 0.14878297042E+02 0.14932802206E+02 0.15179290291E+02
 0.15555791035E+02 0.16002995473E+02 0.16467795362E+02 0.16888817443E+02 0.17206480586E+02
 0.17376411923E+02 0.17376810725E+02 0.17206545211E+02 0.16888919449E+02 0.16466971076E+02
 0.16002854397E+02 0.15555490206E+02 0.15177977089E+02 0.14932550035E+02 0.14878657214E+02
 0.15200102706E+02 0.15462604249E+02 0.15974212077E+02 0.16699940145E+02 0.17593693898E+02
 0.18605270332E+02 0.19629183878E+02 0.20560591658E+02 0.21323008675E+02 0.22299605852E+02
 0.22580510678E+02 0.22485574480E+02 0.21620059203E+02 0.20967493767E+02 0.20111489108E+02
 0.19122590025E+02 0.18090297366E+02 0.17127033516E+02 0.16313004886E+02 0.15688471596E+02
 0.15301333736E+02 0.15159664430E+02 0.15249249433E+02 0.15558317692E+02 0.16035668365E+02
 0.16624877214E+02 0.17268994525E+02 0.17893119433E+02 0.18418592124E+02 0.18783225808E+02
 0.18946955652E+02 0.18891612826E+02 0.18624033099E+02 0.18172460270E+02 0.17589433546E+02
 0.16944486992E+02 0.16319898270E+02 0.15780964834E+02 0.15379170506E+02 0.15175195488E+02
 0.15252574859E+02 0.15369651460E+02 0.15727226177E+02 0.16288487419E+02 0.17003537682E+02
 0.17821968337E+02 0.18656079151E+02 0.19412169244E+02 0.20009225481E+02 0.20392655062E+02
 0.20524351439E+02 0.20392675392E+02 0.20009137456E+02 0.19411929590E+02 0.18656646458E+02
 0.17821995868E+02 0.17004014352E+02 0.16289440664E+02 0.15727507534E+02 0.15368910748E+02
 0.15251600187E+02 0.15368917209E+02 0.15727515277E+02 0.16289427268E+02 0.17004008906E+02