       N       E                     dE             d eps       ncg     rms          rms(c)
DAV:   1     0.138066985387E+03    0.13807E+03   -0.91170E+03  1884   0.212E+03
DAV:   2    -0.131378323214E+01   -0.13938E+03   -0.12553E+03  1784   0.260E+02
DAV:   3    -0.151985920268E+02   -0.13885E+02   -0.13470E+02  1876   0.868E+01
DAV:   4    -0.159892892829E+02   -0.79070E+00   -0.77904E+00  2624   0.188E+01
DAV:   5    -0.160324683472E+02   -0.43179E-01   -0.43076E-01  2452   0.344E+00    0.132E+01
DAV:   6    -0.202023178029E+02   -0.41698E+01   -0.46418E+01  2312   0.676E+01    0.177E+01
DAV:   7    -0.190842851807E+02    0.11180E+01   -0.28650E+00  1944   0.386E+01    0.657E+00
DAV:   8    -0.187610182590E+02    0.32327E+00   -0.14408E+00  2720   0.141E+01    0.254E+00
DAV:   9    -0.188328459725E+02   -0.71828E-01   -0.13618E+00  2160   0.980E+00    0.334E+00
DAV:  10    -0.187486572043E+02    0.84189E-01   -0.81006E-01  2076   0.737E+00    0.105E+00
DAV:  11    -0.187608797590E+02   -0.12223E-01   -0.18933E-02  2520   0.970E-01    0.546E-01
DAV:  12    -0.187593767594E+02    0.15030E-02   -0.53864E-03  2480   0.698E-01    0.511E-01
DAV:  13    -0.187576740366E+02    0.17027E-02   -0.45324E-03  2392   0.561E-01    0.269E-01
DAV:  14    -0.187574066723E+02    0.26736E-03   -0.14425E-03  2656   0.310E-01    0.155E-01
DAV:  15    -0.187574767757E+02   -0.70103E-04   -0.19479E-03  2064   0.368E-01    0.991E-03
DAV:  16    -0.187574801011E+02   -0.33254E-05   -0.91505E-05  2504   0.470E-02    0.961E-03
DAV:  17    -0.187574799373E+02    0.16378E-06   -0.31595E-06  2424   0.850E-03    0.856E-03
DAV:  18    -0.187574848694E+02   -0.49321E-05   -0.75155E-07  2404   0.649E-03    0.868E-03
DAV:  19    -0.187574737593E+02    0.11110E-04   -0.14388E-06  1904   0.102E-02    0.360E-03
DAV:  20    -0.187574688813E+02    0.48780E-05   -0.44718E-07  1688   0.551E-03    0.171E-03
DAV:  21    -0.187574682286E+02    0.65268E-06   -0.40926E-08  1024   0.187E-03    0.134E-03
DAV:  22    -0.187574699883E+02   -0.17597E-05   -0.63756E-08   988   0.260E-03    0.625E-04
DAV:  23    -0.187574700752E+02   -0.86864E-07   -0.75942E-09   940   0.826E-04
   1 F= -.18757470E+02 E0= -.18757470E+02  d E =0.000000E+00  mag=     6.9956
