=========================================
SLURM_JOB_ID = 31798354
SLURM_JOB_NODELIST = lnode34
SLURM_GPUS = 
SLURM_CPUS_ON_NODE = 8
SLURM_JOB_PARTITION = lenovo
SLURM_TASK_PID = 1406846
CUDA_VISIBLE_DEVICES = 
==========================================
 running on    8 total cores
 distrk:  each k-point on    8 cores,    1 groups
 distr:  one band on    4 cores,    2 groups
 using from now: INCAR     
 vasp.5.4.4.18Apr17-6-g9f103f2a35 (build Apr 28 2018 00:24:27) complex          
  
 POSCAR found type information on POSCAR  Fe
 POSCAR found :  1 types and       4 ions
 scaLAPACK will be used
 LDA part: xc-table for Pade appr. of Perdew
 POSCAR, INCAR and KPOINTS ok, starting setup
 FFT: planning ...
 WAVECAR not read
 entering main loop
       N       E                     dE             d eps       ncg     rms          rms(c)
DAV:   1     0.233009838836E+03    0.23301E+03   -0.14299E+04  3208   0.209E+03
DAV:   2    -0.159691579839E+02   -0.24898E+03   -0.24060E+03  3204   0.408E+02
DAV:   3    -0.359805277552E+02   -0.20011E+02   -0.18006E+02  4820   0.137E+02
DAV:   4    -0.370877441526E+02   -0.11072E+01   -0.98776E+00  4692   0.334E+01
DAV:   5    -0.371323683320E+02   -0.44624E-01   -0.40703E-01  4544   0.504E+00    0.225E+01
RMM:   6    -0.321669981338E+02    0.49654E+01   -0.47338E+01  3200   0.101E+02    0.115E+01
RMM:   7    -0.322425078397E+02   -0.75510E-01   -0.34214E+00  3327   0.243E+01    0.614E+00
RMM:   8    -0.322654207882E+02   -0.22913E-01   -0.57489E-01  3980   0.710E+00    0.224E+00
RMM:   9    -0.322570549819E+02    0.83658E-02   -0.13686E-01  3494   0.498E+00    0.784E-01
RMM:  10    -0.322562689557E+02    0.78603E-03   -0.66759E-02  3924   0.257E+00    0.263E-01
RMM:  11    -0.322579933557E+02   -0.17244E-02   -0.18075E-02  4777   0.613E-01    0.179E-01
RMM:  12    -0.322580706350E+02   -0.77279E-04   -0.15207E-03  3785   0.415E-01    0.103E-01
RMM:  13    -0.322581376694E+02   -0.67034E-04   -0.87494E-04  4397   0.195E-01    0.142E-02
RMM:  14    -0.322581453833E+02   -0.77139E-05   -0.12018E-04  4659   0.560E-02    0.883E-03
RMM:  15    -0.322581435391E+02    0.18442E-05   -0.12995E-05  3424   0.215E-02    0.453E-03
RMM:  16    -0.322581410922E+02    0.24469E-05   -0.28849E-06  2352   0.139E-02    0.380E-03
RMM:  17    -0.322581420237E+02   -0.93152E-06   -0.93057E-07  2037   0.107E-02
   1 F= -.32258142E+02 E0= -.32258142E+02  d E =0.000000E+00  mag=     0.0000
