 vasp.5.4.4.18Apr17-6-g9f103f2a35 (build Apr 28 2018 00:24:27) complex          
  
 executed on             LinuxIFC date 2021.03.24  17:58:44
 running on    8 total cores
 distrk:  each k-point on    8 cores,    1 groups
 distr:  one band on NCORES_PER_BAND=   4 cores,    2 groups


--------------------------------------------------------------------------------------------------------


 INCAR:
 POTCAR:    PAW_PBE Fe 06Sep2000                  
 POTCAR:    PAW_PBE Fe 06Sep2000                  
   SHA256 =  cd5a22d9368cc8b5cc476bea79732366149640da08ac9009b0e1b7fc627eea28 Fe
   COPYR  = (c) Copyright 06Sep2000 Georg Kresse                                
   COPYR  = This file is part of the software VASP. Any use, copying, and all ot
   COPYR  = If you do not have a valid VASP license, you may not use, copy or di
   VRHFIN =Fe:  d7 s1                                                           
   LEXCH  = PE                                                                  
   EATOM  =   594.3153 eV,   43.6809 Ry                                         
                                                                                
   TITEL  = PAW_PBE Fe 06Sep2000                                                
   LULTRA =        F    use ultrasoft PP ?                                      
   IUNSCR =        1    unscreen: 0-lin 1-nonlin 2-no                           
   RPACOR =    2.000    partial core radius                                     
   POMASS =   55.847; ZVAL   =    8.000    mass and valenz                      
   RCORE  =    2.300    outmost cutoff radius                                   
   RWIGS  =    2.460; RWIGS  =    1.302    wigner-seitz radius (au A)           
   ENMAX  =  267.882; ENMIN  =  200.911 eV                                      
   RCLOC  =    1.701    cutoff for local pot                                    
   LCOR   =        T    correct aug charges                                     
   LPAW   =        T    paw PP                                                  
   EAUG   =  511.368                                                            
   DEXC   =    0.000                                                            
   RMAX   =    2.356    core radius for proj-oper                               
   RAUG   =    1.300    factor for augmentation sphere                          
   RDEP   =    2.442    radius for radial grids                                 
   RDEPT  =    1.890    core radius for aug-charge                              
                                                                                
   Atomic configuration                                                         
    9 entries                                                                   
     n  l   j            E        occ.                                          
     1  0  0.50     -6993.8440   2.0000                                         
     2  0  0.50      -814.6047   2.0000                                         
     2  1  1.50      -693.3689   6.0000                                         
     3  0  0.50       -89.4732   2.0000                                         
     3  1  1.50       -55.6373   6.0000                                         
     3  2  2.50        -3.8151   7.0000                                         
     4  0  0.50        -4.2551   1.0000                                         
     4  1  1.50        -3.4015   0.0000                                         
     4  3  2.50        -1.3606   0.0000                                         
   Description                                                                  
     l       E           TYP  RCUT    TYP  RCUT                                 
     2     -3.8151135     23  2.300                                             
     2     -5.1756961     23  2.300                                             
     0     -4.2550963     23  2.300                                             
     0      7.2035603     23  2.300                                             
     1     -2.7211652     23  2.300                                             
     1     18.4316424     23  2.300                                             
  local pseudopotential read in
  partial core-charges read in
  partial kinetic energy density read in
  atomic valenz-charges read in
  non local Contribution for L=           2  read in
    real space projection operators read in
  non local Contribution for L=           2  read in
    real space projection operators read in
  non local Contribution for L=           0  read in
    real space projection operators read in
  non local Contribution for L=           0  read in
    real space projection operators read in
  non local Contribution for L=           1  read in
    real space projection operators read in
  non local Contribution for L=           1  read in
    real space projection operators read in
    PAW grid and wavefunctions read in
 
   number of l-projection  operators is LMAX  =           6
   number of lm-projection operators is LMMAX =          18
 
  PAW_PBE Fe 06Sep2000                  :
 energy of atom  1       EATOM= -594.3153
 kinetic energy error for atom=    0.0026 (will be added to EATOM!!)
 
 
 POSCAR: Fe2 str #: 2                            
  positions in direct lattice
  No initial velocities read in
 exchange correlation table for  LEXCH =        8
   RHO(1)=    0.500       N(1)  =     2000
   RHO(2)=  100.500       N(2)  =     4000
 


--------------------------------------------------------------------------------------------------------


 ion  position               nearest neighbor table
   1  0.000  0.000  0.000-   2 2.45   4 2.45   2 2.45   4 2.45   2 2.45   4 2.45   2 2.45   4 2.45
                             3 2.83   3 2.83
   2  0.500  0.500  0.250-   1 2.45   3 2.45   1 2.45   3 2.45   1 2.45   3 2.45   1 2.45   3 2.45
                             4 2.83   4 2.83
   3  0.000  0.000  0.500-   2 2.45   4 2.45   2 2.45   4 2.45   2 2.45   4 2.45   2 2.45   4 2.45
                             1 2.83   1 2.83
   4  0.500  0.500  0.750-   1 2.45   3 2.45   1 2.45   3 2.45   1 2.45   3 2.45   1 2.45   3 2.45
                             2 2.83   2 2.83
 
  LATTYP: Found a simple tetragonal cell.
 ALAT       =     2.8280590000
 C/A-ratio  =     2.0000000000
  
  Lattice vectors:
  
 A1 = (   2.8280590000,   0.0000000000,   0.0000000000)
 A2 = (   0.0000000000,   2.8280590000,   0.0000000000)
 A3 = (   0.0000000000,   0.0000000000,   5.6561180000)


Analysis of symmetry for initial positions (statically):
=====================================================================
 Subroutine PRICEL returns following result:
 
  LATTYP: Found a body centered cubic cell.
 ALAT       =     2.8280590000
  
  Lattice vectors:
  
 A1 = (   1.4140295000,   1.4140295000,   1.4140295000)
 A2 = (   1.4140295000,  -1.4140295000,  -1.4140295000)
 A3 = (  -1.4140295000,   1.4140295000,  -1.4140295000)
 
   4 primitive cells build up your supercell.
 

 Routine SETGRP: Setting up the symmetry group for a 
 simple tetragonal supercell.


 Subroutine GETGRP returns: Found 16 space group operations
 (whereof 16 operations were pure point group operations)
 out of a pool of 16 trial point group operations.


The static configuration has the point symmetry D_4h.


Analysis of symmetry for dynamics (positions and initial velocities):
=====================================================================
 Subroutine PRICEL returns following result:
 
  LATTYP: Found a body centered cubic cell.
 ALAT       =     2.8280590000
  
  Lattice vectors:
  
 A1 = (   1.4140295000,   1.4140295000,   1.4140295000)
 A2 = (   1.4140295000,  -1.4140295000,  -1.4140295000)
 A3 = (  -1.4140295000,   1.4140295000,  -1.4140295000)
 
   4 primitive cells build up your supercell.
 

 Routine SETGRP: Setting up the symmetry group for a 
 simple tetragonal supercell.


 Subroutine GETGRP returns: Found 16 space group operations
 (whereof 16 operations were pure point group operations)
 out of a pool of 16 trial point group operations.


The dynamic configuration has the point symmetry D_4h.


Analysis of structural, dynamic, and magnetic symmetry:
=====================================================================
 Subroutine PRICEL returns following result:
 
  LATTYP: Found a simple cubic cell.
 ALAT       =     2.8280590000
  
  Lattice vectors:
  
 A1 = (   2.8280590000,   0.0000000000,   0.0000000000)
 A2 = (   0.0000000000,   2.8280590000,   0.0000000000)
 A3 = (   0.0000000000,   0.0000000000,   2.8280590000)
 
   2 primitive cells build up your supercell.
 

 Routine SETGRP: Setting up the symmetry group for a 
 simple tetragonal supercell.


 Subroutine GETGRP returns: Found 16 space group operations
 (whereof  8 operations were pure point group operations)
 out of a pool of 16 trial point group operations.


The magnetic configuration has the point symmetry C_4v.
 The point group associated with its full space group is D_4h.


 Subroutine INISYM returns: Found 16 space group operations
 (whereof  8 operations are pure point group operations),
 and found     2 'primitive' translations

 
 
 KPOINTS: pymatgen v2021.2.8.1 with grid density =

Automatic generation of k-mesh.
Space group operators:
 irot       det(A)        alpha          n_x          n_y          n_z        tau_x        tau_y        tau_z
    1     1.000000     0.000000     1.000000     0.000000     0.000000     0.000000     0.000000     0.000000
    2     1.000000    90.000000     0.000000     0.000000    -1.000000     0.000000     0.000000     0.000000
    3     1.000000   180.000000     0.000000     0.000000     1.000000     0.000000     0.000000     0.000000
    4     1.000000    90.000000     0.000000     0.000000     1.000000     0.000000     0.000000     0.000000
    5    -1.000000   180.000000     0.000000     1.000000     0.000000     0.000000     0.000000     0.000000
    6    -1.000000   180.000000     0.707107     0.707107     0.000000     0.000000     0.000000     0.000000
    7    -1.000000   180.000000     1.000000     0.000000     0.000000     0.000000     0.000000     0.000000
    8    -1.000000   180.000000     0.707107    -0.707107     0.000000     0.000000     0.000000     0.000000
    9    -1.000000     0.000000     1.000000     0.000000     0.000000     0.500000     0.500000     0.250000
   10    -1.000000    90.000000     0.000000     0.000000    -1.000000     0.500000     0.500000     0.250000
   11    -1.000000   180.000000     0.000000     0.000000     1.000000     0.500000     0.500000     0.250000
   12    -1.000000    90.000000     0.000000     0.000000     1.000000     0.500000     0.500000     0.250000
   13     1.000000   180.000000     0.000000     1.000000     0.000000     0.500000     0.500000     0.250000
   14     1.000000   180.000000     0.707107     0.707107     0.000000     0.500000     0.500000     0.250000
   15     1.000000   180.000000     1.000000     0.000000     0.000000     0.500000     0.500000     0.250000
   16     1.000000   180.000000     0.707107    -0.707107     0.000000     0.500000     0.500000     0.250000
 
 Subroutine IBZKPT returns following result:
 ===========================================
 
 Found     40 irreducible k-points:
 
 Following reciprocal coordinates:
            Coordinates               Weight
  0.062500  0.062500  0.062500      8.000000
  0.187500  0.062500  0.062500     16.000000
  0.312500  0.062500  0.062500     16.000000
  0.437500  0.062500  0.062500     16.000000
  0.187500  0.187500  0.062500      8.000000
  0.312500  0.187500  0.062500     16.000000
  0.437500  0.187500  0.062500     16.000000
  0.312500  0.312500  0.062500      8.000000
  0.437500  0.312500  0.062500     16.000000
  0.437500  0.437500  0.062500      8.000000
  0.062500  0.062500  0.187500      8.000000
  0.187500  0.062500  0.187500     16.000000
  0.312500  0.062500  0.187500     16.000000
  0.437500  0.062500  0.187500     16.000000
  0.187500  0.187500  0.187500      8.000000
  0.312500  0.187500  0.187500     16.000000
  0.437500  0.187500  0.187500     16.000000
  0.312500  0.312500  0.187500      8.000000
  0.437500  0.312500  0.187500     16.000000
  0.437500  0.437500  0.187500      8.000000
  0.062500  0.062500  0.312500      8.000000
  0.187500  0.062500  0.312500     16.000000
  0.312500  0.062500  0.312500     16.000000
  0.437500  0.062500  0.312500     16.000000
  0.187500  0.187500  0.312500      8.000000
  0.312500  0.187500  0.312500     16.000000
  0.437500  0.187500  0.312500     16.000000
  0.312500  0.312500  0.312500      8.000000
  0.437500  0.312500  0.312500     16.000000
  0.437500  0.437500  0.312500      8.000000
  0.062500  0.062500  0.437500      8.000000
  0.187500  0.062500  0.437500     16.000000
  0.312500  0.062500  0.437500     16.000000
  0.437500  0.062500  0.437500     16.000000
  0.187500  0.187500  0.437500      8.000000
  0.312500  0.187500  0.437500     16.000000
  0.437500  0.187500  0.437500     16.000000
  0.312500  0.312500  0.437500      8.000000
  0.437500  0.312500  0.437500     16.000000
  0.437500  0.437500  0.437500      8.000000
 
 Following cartesian coordinates:
            Coordinates               Weight
  0.022100  0.022100  0.011050      8.000000
  0.066300  0.022100  0.011050     16.000000
  0.110500  0.022100  0.011050     16.000000
  0.154700  0.022100  0.011050     16.000000
  0.066300  0.066300  0.011050      8.000000
  0.110500  0.066300  0.011050     16.000000
  0.154700  0.066300  0.011050     16.000000
  0.110500  0.110500  0.011050      8.000000
  0.154700  0.110500  0.011050     16.000000
  0.154700  0.154700  0.011050      8.000000
  0.022100  0.022100  0.033150      8.000000
  0.066300  0.022100  0.033150     16.000000
  0.110500  0.022100  0.033150     16.000000
  0.154700  0.022100  0.033150     16.000000
  0.066300  0.066300  0.033150      8.000000
  0.110500  0.066300  0.033150     16.000000
  0.154700  0.066300  0.033150     16.000000
  0.110500  0.110500  0.033150      8.000000
  0.154700  0.110500  0.033150     16.000000
  0.154700  0.154700  0.033150      8.000000
  0.022100  0.022100  0.055250      8.000000
  0.066300  0.022100  0.055250     16.000000
  0.110500  0.022100  0.055250     16.000000
  0.154700  0.022100  0.055250     16.000000
  0.066300  0.066300  0.055250      8.000000
  0.110500  0.066300  0.055250     16.000000
  0.154700  0.066300  0.055250     16.000000
  0.110500  0.110500  0.055250      8.000000
  0.154700  0.110500  0.055250     16.000000
  0.154700  0.154700  0.055250      8.000000
  0.022100  0.022100  0.077350      8.000000
  0.066300  0.022100  0.077350     16.000000
  0.110500  0.022100  0.077350     16.000000
  0.154700  0.022100  0.077350     16.000000
  0.066300  0.066300  0.077350      8.000000
  0.110500  0.066300  0.077350     16.000000
  0.154700  0.066300  0.077350     16.000000
  0.110500  0.110500  0.077350      8.000000
  0.154700  0.110500  0.077350     16.000000
  0.154700  0.154700  0.077350      8.000000
 
 TETIRR: Found    703 inequivalent tetrahedra from     3072


--------------------------------------------------------------------------------------------------------




 Dimension of arrays:
   k-points           NKPTS =     40   k-points in BZ     NKDIM =     40   number of bands    NBANDS=     20
   number of dos      NEDOS =    301   number of ions     NIONS =      4
   non local maximal  LDIM  =      6   non local SUM 2l+1 LMDIM =     18
   total plane-waves  NPLWV =  24192
   max r-space proj   IRMAX =      1   max aug-charges    IRDMAX=  19247
   dimension x,y,z NGX =    24 NGY =   24 NGZ =   42
   dimension x,y,z NGXF=    48 NGYF=   48 NGZF=   84
   support grid    NGXF=    48 NGYF=   48 NGZF=   84
   ions per type =               4
   NGX,Y,Z   is equivalent  to a cutoff of  14.11, 14.11, 12.34 a.u.
   NGXF,Y,Z  is equivalent  to a cutoff of  28.22, 28.22, 24.69 a.u.

 SYSTEM =  "Fe-alpha"                              
 POSCAR =  Fe2 str #: 2                            

 Startparameter for this run:
   NWRITE =      2    write-flag & timer
   PREC   = accura    normal or accurate (medium, high low for compatibility)
   ISTART =      0    job   : 0-new  1-cont  2-samecut
   ICHARG =      2    charge: 1-file 2-atom 10-const
   ISPIN  =      2    spin polarized calculation?
   LNONCOLLINEAR =      F non collinear calculations
   LSORBIT =      F    spin-orbit coupling
   INIWAV =      1    electr: 0-lowe 1-rand  2-diag
   LASPH  =      T    aspherical Exc in radial PAW
   METAGGA=      F    non-selfconsistent MetaGGA calc.

 Electronic Relaxation 1
   ENCUT  =  520.0 eV  38.22 Ry    6.18 a.u.   5.26  5.26 10.52*2*pi/ulx,y,z
   ENINI  =  520.0     initial cutoff
   ENAUG  =  511.4 eV  augmentation charge cutoff
   NELM   =     60;   NELMIN=  2; NELMDL= -5     # of ELM steps 
   EDIFF  = 0.1E-05   stopping-criterion for ELM
   LREAL  =      F    real-space projection
   NLSPLINE    = F    spline interpolate recip. space projectors
   LCOMPAT=      F    compatible to vasp.4.4
   GGA_COMPAT  = T    GGA compatible to vasp.4.4-vasp.4.6
   LMAXPAW     = -100 max onsite density
   LMAXMIX     =    2 max onsite mixed and CHGCAR
   VOSKOWN=      0    Vosko Wilk Nusair interpolation
   ROPT   =    0.00000
 Ionic relaxation
   EDIFFG = 0.1E-04   stopping-criterion for IOM
   NSW    =      0    number of steps for IOM
   NBLOCK =      1;   KBLOCK =      1    inner block; outer block 
   IBRION =     -1    ionic relax: 0-MD 1-quasi-New 2-CG
   NFREE  =      1    steps in history (QN), initial steepest desc. (CG)
   ISIF   =      2    stress and relaxation
   IWAVPR =     10    prediction:  0-non 1-charg 2-wave 3-comb
   ISYM   =      2    0-nonsym 1-usesym 2-fastsym
   LCORR  =      T    Harris-Foulkes like correction to forces

   POTIM  = 0.5000    time-step for ionic-motion
   TEIN   =    0.0    initial temperature
   TEBEG  =    0.0;   TEEND  =   0.0 temperature during run
   SMASS  =  -3.00    Nose mass-parameter (am)
   estimated Nose-frequenzy (Omega)   =  0.10E-29 period in steps =****** mass=  -0.183E-27a.u.
   SCALEE = 1.0000    scale energy and forces
   NPACO  =    256;   APACO  = 16.0  distance and # of slots for P.C.
   PSTRESS=    0.0 pullay stress

  Mass of Ions in am
   POMASS =  55.85
  Ionic Valenz
   ZVAL   =   8.00
  Atomic Wigner-Seitz radii
   RWIGS  =  -1.00
  virtual crystal weights 
   VCA    =   1.00
   NELECT =      32.0000    total number of electrons
   NUPDOWN=      -1.0000    fix difference up-down

 DOS related values:
   EMIN   =  10.00;   EMAX   =-10.00  energy-range for DOS
   EFERMI =   0.00
   ISMEAR =    -5;   SIGMA  =   0.05  broadening in eV -4-tet -1-fermi 0-gaus

 Electronic relaxation 2 (details)
   IALGO  =     68    algorithm
   LDIAG  =      T    sub-space diagonalisation (order eigenvalues)
   LSUBROT=      F    optimize rotation matrix (better conditioning)
   TURBO    =      0    0=normal 1=particle mesh
   IRESTART =      0    0=no restart 2=restart with 2 vectors
   NREBOOT  =      0    no. of reboots
   NMIN     =      0    reboot dimension
   EREF     =   0.00    reference energy to select bands
   IMIX   =      4    mixing-type and parameters
     AMIX     =   0.40;   BMIX     =  1.00
     AMIX_MAG =   1.60;   BMIX_MAG =  1.00
     AMIN     =   0.10
     WC   =   100.;   INIMIX=   1;  MIXPRE=   1;  MAXMIX= -45

 Intra band minimization:
   WEIMIN = 0.0000     energy-eigenvalue tresh-hold
   EBREAK =  0.12E-07  absolut break condition
   DEPER  =   0.30     relativ break condition  

   TIME   =   0.40     timestep for ELM

  volume/ion in A,a.u.               =      11.31        76.32
  Fermi-wavevector in a.u.,A,eV,Ry     =   1.458679  2.756503 28.949715  2.127744
  Thomas-Fermi vector in A             =   2.575335
 
 Write flags
   LWAVE        =      F    write WAVECAR
   LDOWNSAMPLE  =      F    k-point downsampling of WAVECAR
   LCHARG       =      T    write CHGCAR
   LVTOT        =      F    write LOCPOT, total local potential
   LVHAR        =      F    write LOCPOT, Hartree potential only
   LELF         =      F    write electronic localiz. function (ELF)
   LORBIT       =     11    0 simple, 1 ext, 2 COOP (PROOUT), +10 PAW based schemes


 Dipole corrections
   LMONO  =      F    monopole corrections only (constant potential shift)
   LDIPOL =      F    correct potential (dipole corrections)
   IDIPOL =      0    1-x, 2-y, 3-z, 4-all directions 
   EPSILON=  1.0000000 bulk dielectric constant

 Exchange correlation treatment:
   GGA     =    --    GGA type
   LEXCH   =     8    internal setting for exchange type
   VOSKOWN=      0    Vosko Wilk Nusair interpolation
   LHFCALC =     F    Hartree Fock is set to
   LHFONE  =     F    Hartree Fock one center treatment
   AEXX    =    0.0000 exact exchange contribution

 Linear response parameters
   LEPSILON=     F    determine dielectric tensor
   LRPA    =     F    only Hartree local field effects (RPA)
   LNABLA  =     F    use nabla operator in PAW spheres
   LVEL    =     F    velocity operator in full k-point grid
   LINTERFAST=   F  fast interpolation
   KINTER  =     0    interpolate to denser k-point grid
   CSHIFT  =0.1000    complex shift for real part using Kramers Kronig
   OMEGAMAX=  -1.0    maximum frequency
   DEG_THRESHOLD= 0.2000000E-02 threshold for treating states as degnerate
   RTIME   =   -0.100 relaxation time in fs
  (WPLASMAI=    0.000 imaginary part of plasma frequency in eV, 0.658/RTIME)
   DFIELD  = 0.0000000 0.0000000 0.0000000 field for delta impulse in time
 
 Orbital magnetization related:
   ORBITALMAG=     F  switch on orbital magnetization
   LCHIMAG   =     F  perturbation theory with respect to B field
   DQ        =  0.001000  dq finite difference perturbation B field
   LLRAUG    =     F  two centre corrections for induced B field



--------------------------------------------------------------------------------------------------------


 Static calculation
 charge density and potential will be updated during run
 spin polarized calculation
 RMM-DIIS sequential band-by-band and
  variant of blocked Davidson during initial phase
 perform sub-space diagonalisation
    before iterative eigenvector-optimisation
 modified Broyden-mixing scheme, WC =      100.0
 initial mixing is a Kerker type mixing with AMIX =  0.4000 and BMIX =      1.0000
 Hartree-type preconditioning will be used
 using additional bands            4
 reciprocal scheme for non local part
 use partial core corrections
 calculate Harris-corrections to forces 
   (improved forces if not selfconsistent)
 use gradient corrections 
 use of overlap-Matrix (Vanderbilt PP)
 Fermi weights with tetrahedron method with Bloechl corrections


--------------------------------------------------------------------------------------------------------


  energy-cutoff  :      520.00
  volume of cell :       45.24
      direct lattice vectors                 reciprocal lattice vectors
     2.828059000  0.000000000  0.000000000     0.353599412  0.000000000  0.000000000
     0.000000000  2.828059000  0.000000000     0.000000000  0.353599412  0.000000000
     0.000000000  0.000000000  5.656118000     0.000000000  0.000000000  0.176799706

  length of vectors
     2.828059000  2.828059000  5.656118000     0.353599412  0.353599412  0.176799706


 
 k-points in units of 2pi/SCALE and weight: pymatgen v2021.2.8.1 with grid density =
   0.02209996  0.02209996  0.01104998       0.016
   0.06629989  0.02209996  0.01104998       0.031
   0.11049982  0.02209996  0.01104998       0.031
   0.15469974  0.02209996  0.01104998       0.031
   0.06629989  0.06629989  0.01104998       0.016
   0.11049982  0.06629989  0.01104998       0.031
   0.15469974  0.06629989  0.01104998       0.031
   0.11049982  0.11049982  0.01104998       0.016
   0.15469974  0.11049982  0.01104998       0.031
   0.15469974  0.15469974  0.01104998       0.016
   0.02209996  0.02209996  0.03314994       0.016
   0.06629989  0.02209996  0.03314994       0.031
   0.11049982  0.02209996  0.03314994       0.031
   0.15469974  0.02209996  0.03314994       0.031
   0.06629989  0.06629989  0.03314994       0.016
   0.11049982  0.06629989  0.03314994       0.031
   0.15469974  0.06629989  0.03314994       0.031
   0.11049982  0.11049982  0.03314994       0.016
   0.15469974  0.11049982  0.03314994       0.031
   0.15469974  0.15469974  0.03314994       0.016
   0.02209996  0.02209996  0.05524991       0.016
   0.06629989  0.02209996  0.05524991       0.031
   0.11049982  0.02209996  0.05524991       0.031
   0.15469974  0.02209996  0.05524991       0.031
   0.06629989  0.06629989  0.05524991       0.016
   0.11049982  0.06629989  0.05524991       0.031
   0.15469974  0.06629989  0.05524991       0.031
   0.11049982  0.11049982  0.05524991       0.016
   0.15469974  0.11049982  0.05524991       0.031
   0.15469974  0.15469974  0.05524991       0.016
   0.02209996  0.02209996  0.07734987       0.016
   0.06629989  0.02209996  0.07734987       0.031
   0.11049982  0.02209996  0.07734987       0.031
   0.15469974  0.02209996  0.07734987       0.031
   0.06629989  0.06629989  0.07734987       0.016
   0.11049982  0.06629989  0.07734987       0.031
   0.15469974  0.06629989  0.07734987       0.031
   0.11049982  0.11049982  0.07734987       0.016
   0.15469974  0.11049982  0.07734987       0.031
   0.15469974  0.15469974  0.07734987       0.016
 
 k-points in reciprocal lattice and weights: pymatgen v2021.2.8.1 with grid density =
   0.06250000  0.06250000  0.06250000       0.016
   0.18750000  0.06250000  0.06250000       0.031
   0.31250000  0.06250000  0.06250000       0.031
   0.43750000  0.06250000  0.06250000       0.031
   0.18750000  0.18750000  0.06250000       0.016
   0.31250000  0.18750000  0.06250000       0.031
   0.43750000  0.18750000  0.06250000       0.031
   0.31250000  0.31250000  0.06250000       0.016
   0.43750000  0.31250000  0.06250000       0.031
   0.43750000  0.43750000  0.06250000       0.016
   0.06250000  0.06250000  0.18750000       0.016
   0.18750000  0.06250000  0.18750000       0.031
   0.31250000  0.06250000  0.18750000       0.031
   0.43750000  0.06250000  0.18750000       0.031
   0.18750000  0.18750000  0.18750000       0.016
   0.31250000  0.18750000  0.18750000       0.031
   0.43750000  0.18750000  0.18750000       0.031
   0.31250000  0.31250000  0.18750000       0.016
   0.43750000  0.31250000  0.18750000       0.031
   0.43750000  0.43750000  0.18750000       0.016
   0.06250000  0.06250000  0.31250000       0.016
   0.18750000  0.06250000  0.31250000       0.031
   0.31250000  0.06250000  0.31250000       0.031
   0.43750000  0.06250000  0.31250000       0.031
   0.18750000  0.18750000  0.31250000       0.016
   0.31250000  0.18750000  0.31250000       0.031
   0.43750000  0.18750000  0.31250000       0.031
   0.31250000  0.31250000  0.31250000       0.016
   0.43750000  0.31250000  0.31250000       0.031
   0.43750000  0.43750000  0.31250000       0.016
   0.06250000  0.06250000  0.43750000       0.016
   0.18750000  0.06250000  0.43750000       0.031
   0.31250000  0.06250000  0.43750000       0.031
   0.43750000  0.06250000  0.43750000       0.031
   0.18750000  0.18750000  0.43750000       0.016
   0.31250000  0.18750000  0.43750000       0.031
   0.43750000  0.18750000  0.43750000       0.031
   0.31250000  0.31250000  0.43750000       0.016
   0.43750000  0.31250000  0.43750000       0.031
   0.43750000  0.43750000  0.43750000       0.016
 
 position of ions in fractional coordinates (direct lattice) 
   0.00000000  0.00000000  0.00000000
   0.50000000  0.50000000  0.25000000
   0.00000000  0.00000000  0.50000000
   0.50000000  0.50000000  0.75000000
 
 position of ions in cartesian coordinates  (Angst):
   0.00000000  0.00000000  0.00000000
   1.41402950  1.41402950  1.41402950
   0.00000000  0.00000000  2.82805900
   1.41402950  1.41402950  4.24208850
 


--------------------------------------------------------------------------------------------------------


 k-point  1 :   0.0625 0.0625 0.0625  plane waves:    1223
 k-point  2 :   0.1875 0.0625 0.0625  plane waves:    1220
 k-point  3 :   0.3125 0.0625 0.0625  plane waves:    1223
 k-point  4 :   0.4375 0.0625 0.0625  plane waves:    1215
 k-point  5 :   0.1875 0.1875 0.0625  plane waves:    1216
 k-point  6 :   0.3125 0.1875 0.0625  plane waves:    1220
 k-point  7 :   0.4375 0.1875 0.0625  plane waves:    1224
 k-point  8 :   0.3125 0.3125 0.0625  plane waves:    1216
 k-point  9 :   0.4375 0.3125 0.0625  plane waves:    1219
 k-point 10 :   0.4375 0.4375 0.0625  plane waves:    1227
 k-point 11 :   0.0625 0.0625 0.1875  plane waves:    1223
 k-point 12 :   0.1875 0.0625 0.1875  plane waves:    1221
 k-point 13 :   0.3125 0.0625 0.1875  plane waves:    1220
 k-point 14 :   0.4375 0.0625 0.1875  plane waves:    1217
 k-point 15 :   0.1875 0.1875 0.1875  plane waves:    1220
 k-point 16 :   0.3125 0.1875 0.1875  plane waves:    1219
 k-point 17 :   0.4375 0.1875 0.1875  plane waves:    1220
 k-point 18 :   0.3125 0.3125 0.1875  plane waves:    1217
 k-point 19 :   0.4375 0.3125 0.1875  plane waves:    1219
 k-point 20 :   0.4375 0.4375 0.1875  plane waves:    1223
 k-point 21 :   0.0625 0.0625 0.3125  plane waves:    1226
 k-point 22 :   0.1875 0.0625 0.3125  plane waves:    1223
 k-point 23 :   0.3125 0.0625 0.3125  plane waves:    1215
 k-point 24 :   0.4375 0.0625 0.3125  plane waves:    1212
 k-point 25 :   0.1875 0.1875 0.3125  plane waves:    1209
 k-point 26 :   0.3125 0.1875 0.3125  plane waves:    1217
 k-point 27 :   0.4375 0.1875 0.3125  plane waves:    1216
 k-point 28 :   0.3125 0.3125 0.3125  plane waves:    1226
 k-point 29 :   0.4375 0.3125 0.3125  plane waves:    1218
 k-point 30 :   0.4375 0.4375 0.3125  plane waves:    1226
 k-point 31 :   0.0625 0.0625 0.4375  plane waves:    1234
 k-point 32 :   0.1875 0.0625 0.4375  plane waves:    1225
 k-point 33 :   0.3125 0.0625 0.4375  plane waves:    1215
 k-point 34 :   0.4375 0.0625 0.4375  plane waves:    1215
 k-point 35 :   0.1875 0.1875 0.4375  plane waves:    1212
 k-point 36 :   0.3125 0.1875 0.4375  plane waves:    1211
 k-point 37 :   0.4375 0.1875 0.4375  plane waves:    1214
 k-point 38 :   0.3125 0.3125 0.4375  plane waves:    1215
 k-point 39 :   0.4375 0.3125 0.4375  plane waves:    1220
 k-point 40 :   0.4375 0.4375 0.4375  plane waves:    1226

 maximum and minimum number of plane-waves per node :       323      295

 maximum number of plane-waves:      1234
 maximum index in each direction: 
   IXMAX=    5   IYMAX=    5   IZMAX=   10
   IXMIN=   -5   IYMIN=   -5   IZMIN=  -10


 parallel 3D FFT for wavefunctions:
    minimum data exchange during FFTs selected (reduces bandwidth)
 parallel 3D FFT for charge:
    minimum data exchange during FFTs selected (reduces bandwidth)


 total amount of memory used by VASP MPI-rank0    39562. kBytes
=======================================================================

   base      :      30000. kBytes
   nonl-proj :       1886. kBytes
   fftplans  :       1006. kBytes
   grid      :       2262. kBytes
   one-center:         31. kBytes
   wavefun   :       4377. kBytes
 
     INWAV:  cpu time    0.0000: real time    0.0001
 Broyden mixing: mesh for mixing (old mesh)
   NGX = 11   NGY = 11   NGZ = 21
  (NGX  = 48   NGY  = 48   NGZ  = 84)
  gives a total of   2541 points

 initial charge density was supplied:
 charge density of overlapping atoms calculated
 number of electron      32.0000000 magnetization       0.0000000
 keeping initial charge density in first step


--------------------------------------------------------------------------------------------------------


 Maximum index for augmentation-charges         2301 (set IRDMAX)


--------------------------------------------------------------------------------------------------------


 First call to EWALD:  gamma=   0.497
 Maximum number of real-space cells 3x 3x 2
 Maximum number of reciprocal cells 2x 2x 4

    FEWALD:  cpu time    0.0012: real time    0.0012


--------------------------------------- Iteration      1(   1)  ---------------------------------------


    POTLOK:  cpu time    0.0273: real time    0.0275
    SETDIJ:  cpu time    0.5106: real time    0.5119
     EDDAV:  cpu time    0.6862: real time    0.6971
 BZINTS: Fermi energy: 19.541243; 32.000000 electrons
         Band energy: 440.987495;  BLOECHL correction: -0.100372
       DOS:  cpu time    0.0448: real time    0.0449
    --------------------------------------------
      LOOP:  cpu time    1.2690: real time    1.2814

 eigenvalue-minimisations  :  3208
 total energy-change (2. order) : 0.2330098E+03  (-0.1429903E+04)
 number of electron      32.0000000 magnetization       0.0000000
 augmentation part       32.0000000 magnetization       0.0000000

 Free energy of the ion-electron system (eV)
  ---------------------------------------------------
  alpha Z        PSCENC =       244.44953260
  Ewald energy   TEWEN  =     -2371.85154731
  -Hartree energ DENC   =      -444.76523052
  -exchange      EXHF   =         0.00000000
  -V(xc)+E(xc)   XCENC  =        17.78835791
  PAW double counting   =      2217.18181135    -2248.03130310
  entropy T*S    EENTRO =         0.00000000
  eigenvalues    EBANDS =       440.98749509
  atomic energy  EATOM  =      2377.25072281
  Solvation  Ediel_sol  =         0.00000000
  ---------------------------------------------------
  free energy    TOTEN  =       233.00983884 eV

  energy without entropy =      233.00983884  energy(sigma->0) =      233.00983884


--------------------------------------------------------------------------------------------------------




--------------------------------------- Iteration      1(   2)  ---------------------------------------


     EDDAV:  cpu time    0.6812: real time    0.6845
 BZINTS: Fermi energy:  9.655657; 32.000000 electrons
         Band energy: 192.008498;  BLOECHL correction: -0.047140
       DOS:  cpu time    0.0443: real time    0.0444
    --------------------------------------------
      LOOP:  cpu time    0.7255: real time    0.7289

 eigenvalue-minimisations  :  3204
 total energy-change (2. order) :-0.2489790E+03  (-0.2406023E+03)
 number of electron      32.0000000 magnetization       0.0000000
 augmentation part       32.0000000 magnetization       0.0000000

 Free energy of the ion-electron system (eV)
  ---------------------------------------------------
  alpha Z        PSCENC =       244.44953260
  Ewald energy   TEWEN  =     -2371.85154731
  -Hartree energ DENC   =      -444.76523052
  -exchange      EXHF   =         0.00000000
  -V(xc)+E(xc)   XCENC  =        17.78835791
  PAW double counting   =      2217.18181135    -2248.03130310
  entropy T*S    EENTRO =         0.00000000
  eigenvalues    EBANDS =       192.00849827
  atomic energy  EATOM  =      2377.25072281
  Solvation  Ediel_sol  =         0.00000000
  ---------------------------------------------------
  free energy    TOTEN  =       -15.96915798 eV

  energy without entropy =      -15.96915798  energy(sigma->0) =      -15.96915798


--------------------------------------------------------------------------------------------------------




--------------------------------------- Iteration      1(   3)  ---------------------------------------


     EDDAV:  cpu time    0.9326: real time    0.9354
 BZINTS: Fermi energy:  8.568138; 32.000000 electrons
         Band energy: 171.997129;  BLOECHL correction: -0.035075
       DOS:  cpu time    0.0403: real time    0.0403
    --------------------------------------------
      LOOP:  cpu time    0.9728: real time    0.9757

 eigenvalue-minimisations  :  4820
 total energy-change (2. order) :-0.2001137E+02  (-0.1800641E+02)
 number of electron      32.0000000 magnetization       0.0000000
 augmentation part       32.0000000 magnetization       0.0000000

 Free energy of the ion-electron system (eV)
  ---------------------------------------------------
  alpha Z        PSCENC =       244.44953260
  Ewald energy   TEWEN  =     -2371.85154731
  -Hartree energ DENC   =      -444.76523052
  -exchange      EXHF   =         0.00000000
  -V(xc)+E(xc)   XCENC  =        17.78835791
  PAW double counting   =      2217.18181135    -2248.03130310
  entropy T*S    EENTRO =         0.00000000
  eigenvalues    EBANDS =       171.99712850
  atomic energy  EATOM  =      2377.25072281
  Solvation  Ediel_sol  =         0.00000000
  ---------------------------------------------------
  free energy    TOTEN  =       -35.98052776 eV

  energy without entropy =      -35.98052776  energy(sigma->0) =      -35.98052776


--------------------------------------------------------------------------------------------------------




--------------------------------------- Iteration      1(   4)  ---------------------------------------


     EDDAV:  cpu time    0.9156: real time    0.9190
 BZINTS: Fermi energy:  8.422326; 32.000000 electrons
         Band energy: 170.889912;  BLOECHL correction: -0.040286
       DOS:  cpu time    0.0453: real time    0.0454
    --------------------------------------------
      LOOP:  cpu time    0.9609: real time    0.9644

 eigenvalue-minimisations  :  4692
 total energy-change (2. order) :-0.1107216E+01  (-0.9877622E+00)
 number of electron      32.0000000 magnetization       0.0000000
 augmentation part       32.0000000 magnetization       0.0000000

 Free energy of the ion-electron system (eV)
  ---------------------------------------------------
  alpha Z        PSCENC =       244.44953260
  Ewald energy   TEWEN  =     -2371.85154731
  -Hartree energ DENC   =      -444.76523052
  -exchange      EXHF   =         0.00000000
  -V(xc)+E(xc)   XCENC  =        17.78835791
  PAW double counting   =      2217.18181135    -2248.03130310
  entropy T*S    EENTRO =         0.00000000
  eigenvalues    EBANDS =       170.88991211
  atomic energy  EATOM  =      2377.25072281
  Solvation  Ediel_sol  =         0.00000000
  ---------------------------------------------------
  free energy    TOTEN  =       -37.08774415 eV

  energy without entropy =      -37.08774415  energy(sigma->0) =      -37.08774415


--------------------------------------------------------------------------------------------------------




--------------------------------------- Iteration      1(   5)  ---------------------------------------


     EDDAV:  cpu time    0.8866: real time    0.8891
 BZINTS: Fermi energy:  8.406550; 32.000000 electrons
         Band energy: 170.845288;  BLOECHL correction: -0.040297
       DOS:  cpu time    0.0438: real time    0.0439
    CHARGE:  cpu time    0.0666: real time    0.0668
    MIXING:  cpu time    0.0007: real time    0.0007
    --------------------------------------------
      LOOP:  cpu time    0.9977: real time    1.0005

 eigenvalue-minimisations  :  4544
 total energy-change (2. order) :-0.4462418E-01  (-0.4070334E-01)
 number of electron      32.0000008 magnetization       0.0000000
 augmentation part       14.3740939 magnetization       0.0000000

 Broyden mixing:
  rms(total) = 0.22499E+01    rms(broyden)= 0.22497E+01
  rms(prec ) = 0.32578E+01
  weight for this iteration     100.00

 Free energy of the ion-electron system (eV)
  ---------------------------------------------------
  alpha Z        PSCENC =       244.44953260
  Ewald energy   TEWEN  =     -2371.85154731
  -Hartree energ DENC   =      -444.76523052
  -exchange      EXHF   =         0.00000000
  -V(xc)+E(xc)   XCENC  =        17.78835791
  PAW double counting   =      2217.18181135    -2248.03130310
  entropy T*S    EENTRO =         0.00000000
  eigenvalues    EBANDS =       170.84528793
  atomic energy  EATOM  =      2377.25072281
  Solvation  Ediel_sol  =         0.00000000
  ---------------------------------------------------
  free energy    TOTEN  =       -37.13236833 eV

  energy without entropy =      -37.13236833  energy(sigma->0) =      -37.13236833


--------------------------------------------------------------------------------------------------------




--------------------------------------- Iteration      1(   6)  ---------------------------------------


    POTLOK:  cpu time    0.0275: real time    0.0276
    SETDIJ:  cpu time    0.5353: real time    0.5368
    EDDIAG:  cpu time    0.1686: real time    0.1690
  RMM-DIIS:  cpu time    0.4590: real time    0.4601
    ORTHCH:  cpu time    0.0167: real time    0.0168
 BZINTS: Fermi energy:  5.493926; 32.000000 electrons
         Band energy: 101.495655;  BLOECHL correction: -0.040151
       DOS:  cpu time    0.0413: real time    0.0414
    CHARGE:  cpu time    0.0650: real time    0.0652
    MIXING:  cpu time    0.0008: real time    0.0008
    --------------------------------------------
      LOOP:  cpu time    1.3142: real time    1.3177

 eigenvalue-minimisations  :  3200
 total energy-change (2. order) : 0.4965370E+01  (-0.4733813E+01)
 number of electron      32.0000009 magnetization       0.0000000
 augmentation part       16.7924036 magnetization       0.0000000

 Broyden mixing:
  rms(total) = 0.11489E+01    rms(broyden)= 0.11488E+01
  rms(prec ) = 0.11686E+01
  weight for this iteration     100.00

 eigenvalues of (default mixing * dielectric matrix)
  average eigenvalue GAMMA=   0.5779
  0.5779

 Free energy of the ion-electron system (eV)
  ---------------------------------------------------
  alpha Z        PSCENC =       244.44953260
  Ewald energy   TEWEN  =     -2371.85154731
  -Hartree energ DENC   =      -376.36476388
  -exchange      EXHF   =         0.00000000
  -V(xc)+E(xc)   XCENC  =        14.82851448
  PAW double counting   =      2429.44977990    -2451.42489192
  entropy T*S    EENTRO =         0.00000000
  eigenvalues    EBANDS =       101.49565519
  atomic energy  EATOM  =      2377.25072281
  Solvation  Ediel_sol  =         0.00000000
  ---------------------------------------------------
  free energy    TOTEN  =       -32.16699813 eV

  energy without entropy =      -32.16699813  energy(sigma->0) =      -32.16699813


--------------------------------------------------------------------------------------------------------




--------------------------------------- Iteration      1(   7)  ---------------------------------------


    POTLOK:  cpu time    0.0262: real time    0.0264
    SETDIJ:  cpu time    0.5341: real time    0.5355
    EDDIAG:  cpu time    0.1690: real time    0.1694
  RMM-DIIS:  cpu time    0.4874: real time    0.4886
    ORTHCH:  cpu time    0.0169: real time    0.0170
 BZINTS: Fermi energy:  5.962696; 32.000000 electrons
         Band energy: 111.136587;  BLOECHL correction: -0.036077
       DOS:  cpu time    0.0426: real time    0.0427
    CHARGE:  cpu time    0.0643: real time    0.0644
    MIXING:  cpu time    0.0008: real time    0.0008
    --------------------------------------------
      LOOP:  cpu time    1.3413: real time    1.3447

 eigenvalue-minimisations  :  3327
 total energy-change (2. order) :-0.7550971E-01  (-0.3421405E+00)
 number of electron      32.0000009 magnetization       0.0000000
 augmentation part       16.6126580 magnetization       0.0000000

 Broyden mixing:
  rms(total) = 0.61438E+00    rms(broyden)= 0.61437E+00
  rms(prec ) = 0.61879E+00
  weight for this iteration     100.00

 eigenvalues of (default mixing * dielectric matrix)
  average eigenvalue GAMMA=   0.8317
  1.0914  0.5721

 Free energy of the ion-electron system (eV)
  ---------------------------------------------------
  alpha Z        PSCENC =       244.44953260
  Ewald energy   TEWEN  =     -2371.85154731
  -Hartree energ DENC   =      -380.22563543
  -exchange      EXHF   =         0.00000000
  -V(xc)+E(xc)   XCENC  =        16.26183610
  PAW double counting   =      2580.95095759    -2610.21496140
  entropy T*S    EENTRO =         0.00000000
  eigenvalues    EBANDS =       111.13658720
  atomic energy  EATOM  =      2377.25072281
  Solvation  Ediel_sol  =         0.00000000
  ---------------------------------------------------
  free energy    TOTEN  =       -32.24250784 eV

  energy without entropy =      -32.24250784  energy(sigma->0) =      -32.24250784


--------------------------------------------------------------------------------------------------------




--------------------------------------- Iteration      1(   8)  ---------------------------------------


    POTLOK:  cpu time    0.0258: real time    0.0261
    SETDIJ:  cpu time    0.5317: real time    0.5330
    EDDIAG:  cpu time    0.1675: real time    0.1679
  RMM-DIIS:  cpu time    0.5764: real time    0.5779
    ORTHCH:  cpu time    0.0168: real time    0.0169
 BZINTS: Fermi energy:  6.105568; 32.000000 electrons
         Band energy: 114.105558;  BLOECHL correction: -0.036055
       DOS:  cpu time    0.0430: real time    0.0431
    CHARGE:  cpu time    0.0649: real time    0.0651
    MIXING:  cpu time    0.0007: real time    0.0007
    --------------------------------------------
      LOOP:  cpu time    1.4268: real time    1.4307

 eigenvalue-minimisations  :  3980
 total energy-change (2. order) :-0.2291295E-01  (-0.5748902E-01)
 number of electron      32.0000008 magnetization      -0.0000000
 augmentation part       16.5747807 magnetization      -0.0000000

 Broyden mixing:
  rms(total) = 0.22352E+00    rms(broyden)= 0.22352E+00
  rms(prec ) = 0.22991E+00
  weight for this iteration     100.00

 eigenvalues of (default mixing * dielectric matrix)
  average eigenvalue GAMMA=   1.0696
  1.7283  0.7792  0.7014

 Free energy of the ion-electron system (eV)
  ---------------------------------------------------
  alpha Z        PSCENC =       244.44953260
  Ewald energy   TEWEN  =     -2371.85154731
  -Hartree energ DENC   =      -380.39620868
  -exchange      EXHF   =         0.00000000
  -V(xc)+E(xc)   XCENC  =        16.40551371
  PAW double counting   =      2668.10077024    -2700.32976205
  entropy T*S    EENTRO =         0.00000000
  eigenvalues    EBANDS =       114.10555789
  atomic energy  EATOM  =      2377.25072281
  Solvation  Ediel_sol  =         0.00000000
  ---------------------------------------------------
  free energy    TOTEN  =       -32.26542079 eV

  energy without entropy =      -32.26542079  energy(sigma->0) =      -32.26542079


--------------------------------------------------------------------------------------------------------




--------------------------------------- Iteration      1(   9)  ---------------------------------------


    POTLOK:  cpu time    0.0263: real time    0.0264
    SETDIJ:  cpu time    0.5329: real time    0.5342
    EDDIAG:  cpu time    0.1685: real time    0.1689
  RMM-DIIS:  cpu time    0.5172: real time    0.5186
    ORTHCH:  cpu time    0.0168: real time    0.0168
 BZINTS: Fermi energy:  6.228751; 32.000000 electrons
         Band energy: 116.667813;  BLOECHL correction: -0.036334
       DOS:  cpu time    0.0427: real time    0.0428
    CHARGE:  cpu time    0.0643: real time    0.0644
    MIXING:  cpu time    0.0008: real time    0.0008
    --------------------------------------------
      LOOP:  cpu time    1.3695: real time    1.3729

 eigenvalue-minimisations  :  3494
 total energy-change (2. order) : 0.8365806E-02  (-0.1368592E-01)
 number of electron      32.0000008 magnetization      -0.0000000
 augmentation part       16.4941171 magnetization      -0.0000000

 Broyden mixing:
  rms(total) = 0.78438E-01    rms(broyden)= 0.78437E-01
  rms(prec ) = 0.10389E+00
  weight for this iteration     100.00

 eigenvalues of (default mixing * dielectric matrix)
  average eigenvalue GAMMA=   1.1940
  2.1168  1.0223  1.0223  0.6146

 Free energy of the ion-electron system (eV)
  ---------------------------------------------------
  alpha Z        PSCENC =       244.44953260
  Ewald energy   TEWEN  =     -2371.85154731
  -Hartree energ DENC   =      -379.46488082
  -exchange      EXHF   =         0.00000000
  -V(xc)+E(xc)   XCENC  =        16.62229338
  PAW double counting   =      2808.41527637    -2844.34626540
  entropy T*S    EENTRO =         0.00000000
  eigenvalues    EBANDS =       116.66781339
  atomic energy  EATOM  =      2377.25072281
  Solvation  Ediel_sol  =         0.00000000
  ---------------------------------------------------
  free energy    TOTEN  =       -32.25705498 eV

  energy without entropy =      -32.25705498  energy(sigma->0) =      -32.25705498


--------------------------------------------------------------------------------------------------------




--------------------------------------- Iteration      1(  10)  ---------------------------------------


    POTLOK:  cpu time    0.0262: real time    0.0263
    SETDIJ:  cpu time    0.5332: real time    0.5346
    EDDIAG:  cpu time    0.1687: real time    0.1691
  RMM-DIIS:  cpu time    0.5768: real time    0.5782
    ORTHCH:  cpu time    0.0182: real time    0.0182
 BZINTS: Fermi energy:  6.150286; 32.000000 electrons
         Band energy: 114.748146;  BLOECHL correction: -0.036198
       DOS:  cpu time    0.0423: real time    0.0424
    CHARGE:  cpu time    0.0655: real time    0.0658
    MIXING:  cpu time    0.0009: real time    0.0009
    --------------------------------------------
      LOOP:  cpu time    1.4317: real time    1.4354

 eigenvalue-minimisations  :  3924
 total energy-change (2. order) : 0.7860263E-03  (-0.6675932E-02)
 number of electron      32.0000008 magnetization       0.0000000
 augmentation part       16.5603247 magnetization       0.0000000

 Broyden mixing:
  rms(total) = 0.26290E-01    rms(broyden)= 0.26289E-01
  rms(prec ) = 0.28141E-01
  weight for this iteration     100.00

 eigenvalues of (default mixing * dielectric matrix)
  average eigenvalue GAMMA=   1.1087
  2.3176  0.9804  0.9804  0.6702  0.5951

 Free energy of the ion-electron system (eV)
  ---------------------------------------------------
  alpha Z        PSCENC =       244.44953260
  Ewald energy   TEWEN  =     -2371.85154731
  -Hartree energ DENC   =      -377.16972613
  -exchange      EXHF   =         0.00000000
  -V(xc)+E(xc)   XCENC  =        16.46965835
  PAW double counting   =      2845.09206461    -2881.24512009
  entropy T*S    EENTRO =         0.00000000
  eigenvalues    EBANDS =       114.74814621
  atomic energy  EATOM  =      2377.25072281
  Solvation  Ediel_sol  =         0.00000000
  ---------------------------------------------------
  free energy    TOTEN  =       -32.25626896 eV

  energy without entropy =      -32.25626896  energy(sigma->0) =      -32.25626896


--------------------------------------------------------------------------------------------------------




--------------------------------------- Iteration      1(  11)  ---------------------------------------


    POTLOK:  cpu time    0.0274: real time    0.0277
    SETDIJ:  cpu time    0.5482: real time    0.5495
    EDDIAG:  cpu time    0.1653: real time    0.1657
  RMM-DIIS:  cpu time    0.6950: real time    0.6967
    ORTHCH:  cpu time    0.0170: real time    0.0171
 BZINTS: Fermi energy:  6.158932; 32.000000 electrons
         Band energy: 114.936646;  BLOECHL correction: -0.036224
       DOS:  cpu time    0.0412: real time    0.0413
    CHARGE:  cpu time    0.0638: real time    0.0640
    MIXING:  cpu time    0.0008: real time    0.0008
    --------------------------------------------
      LOOP:  cpu time    1.5587: real time    1.5628

 eigenvalue-minimisations  :  4777
 total energy-change (2. order) :-0.1724400E-02  (-0.1807451E-02)
 number of electron      32.0000008 magnetization      -0.0000000
 augmentation part       16.5661052 magnetization      -0.0000000

 Broyden mixing:
  rms(total) = 0.17872E-01    rms(broyden)= 0.17872E-01
  rms(prec ) = 0.21749E-01
  weight for this iteration     100.00

 eigenvalues of (default mixing * dielectric matrix)
  average eigenvalue GAMMA=   1.0327
  2.3696  0.9378  0.9378  0.6282  0.6614  0.6614

 Free energy of the ion-electron system (eV)
  ---------------------------------------------------
  alpha Z        PSCENC =       244.44953260
  Ewald energy   TEWEN  =     -2371.85154731
  -Hartree energ DENC   =      -377.19756793
  -exchange      EXHF   =         0.00000000
  -V(xc)+E(xc)   XCENC  =        16.51360902
  PAW double counting   =      2855.86855200    -2892.22794034
  entropy T*S    EENTRO =         0.00000000
  eigenvalues    EBANDS =       114.93664580
  atomic energy  EATOM  =      2377.25072281
  Solvation  Ediel_sol  =         0.00000000
  ---------------------------------------------------
  free energy    TOTEN  =       -32.25799336 eV

  energy without entropy =      -32.25799336  energy(sigma->0) =      -32.25799336


--------------------------------------------------------------------------------------------------------




--------------------------------------- Iteration      1(  12)  ---------------------------------------


    POTLOK:  cpu time    0.0248: real time    0.0249
    SETDIJ:  cpu time    0.5421: real time    0.5435
    EDDIAG:  cpu time    0.1677: real time    0.1681
  RMM-DIIS:  cpu time    0.5534: real time    0.5547
    ORTHCH:  cpu time    0.0167: real time    0.0168
 BZINTS: Fermi energy:  6.170457; 32.000000 electrons
         Band energy: 115.156087;  BLOECHL correction: -0.036216
       DOS:  cpu time    0.0427: real time    0.0428
    CHARGE:  cpu time    0.0653: real time    0.0656
    MIXING:  cpu time    0.0009: real time    0.0009
    --------------------------------------------
      LOOP:  cpu time    1.4136: real time    1.4172

 eigenvalue-minimisations  :  3785
 total energy-change (2. order) :-0.7727933E-04  (-0.1520688E-03)
 number of electron      32.0000008 magnetization      -0.0000000
 augmentation part       16.5585004 magnetization      -0.0000000

 Broyden mixing:
  rms(total) = 0.10333E-01    rms(broyden)= 0.10332E-01
  rms(prec ) = 0.11393E-01
  weight for this iteration     100.00

 eigenvalues of (default mixing * dielectric matrix)
  average eigenvalue GAMMA=   1.1866
  2.5417  1.2469  1.2469  1.0141  1.0141  0.6212  0.6212

 Free energy of the ion-electron system (eV)
  ---------------------------------------------------
  alpha Z        PSCENC =       244.44953260
  Ewald energy   TEWEN  =     -2371.85154731
  -Hartree energ DENC   =      -377.38567283
  -exchange      EXHF   =         0.00000000
  -V(xc)+E(xc)   XCENC  =        16.54590173
  PAW double counting   =      2860.99503554    -2897.41812969
  entropy T*S    EENTRO =         0.00000000
  eigenvalues    EBANDS =       115.15608652
  atomic energy  EATOM  =      2377.25072281
  Solvation  Ediel_sol  =         0.00000000
  ---------------------------------------------------
  free energy    TOTEN  =       -32.25807063 eV

  energy without entropy =      -32.25807063  energy(sigma->0) =      -32.25807063


--------------------------------------------------------------------------------------------------------




--------------------------------------- Iteration      1(  13)  ---------------------------------------


    POTLOK:  cpu time    0.0264: real time    0.0265
    SETDIJ:  cpu time    0.5347: real time    0.5360
    EDDIAG:  cpu time    0.1679: real time    0.1683
  RMM-DIIS:  cpu time    0.6487: real time    0.6504
    ORTHCH:  cpu time    0.0169: real time    0.0169
 BZINTS: Fermi energy:  6.175371; 32.000000 electrons
         Band energy: 115.224381;  BLOECHL correction: -0.036207
       DOS:  cpu time    0.0404: real time    0.0405
    CHARGE:  cpu time    0.0649: real time    0.0651
    MIXING:  cpu time    0.0010: real time    0.0010
    --------------------------------------------
      LOOP:  cpu time    1.5008: real time    1.5046

 eigenvalue-minimisations  :  4397
 total energy-change (2. order) :-0.6703438E-04  (-0.8749419E-04)
 number of electron      32.0000008 magnetization       0.0000000
 augmentation part       16.5547485 magnetization       0.0000000

 Broyden mixing:
  rms(total) = 0.14202E-02    rms(broyden)= 0.14195E-02
  rms(prec ) = 0.15213E-02
  weight for this iteration     100.00

 eigenvalues of (default mixing * dielectric matrix)
  average eigenvalue GAMMA=   1.1831
  2.6356  1.6460  1.1483  1.0138  1.0138  0.7835  0.6120  0.6120

 Free energy of the ion-electron system (eV)
  ---------------------------------------------------
  alpha Z        PSCENC =       244.44953260
  Ewald energy   TEWEN  =     -2371.85154731
  -Hartree energ DENC   =      -377.52206002
  -exchange      EXHF   =         0.00000000
  -V(xc)+E(xc)   XCENC  =        16.58592661
  PAW double counting   =      2866.88159128    -2903.27668488
  entropy T*S    EENTRO =         0.00000000
  eigenvalues    EBANDS =       115.22438124
  atomic energy  EATOM  =      2377.25072281
  Solvation  Ediel_sol  =         0.00000000
  ---------------------------------------------------
  free energy    TOTEN  =       -32.25813767 eV

  energy without entropy =      -32.25813767  energy(sigma->0) =      -32.25813767


--------------------------------------------------------------------------------------------------------




--------------------------------------- Iteration      1(  14)  ---------------------------------------


    POTLOK:  cpu time    0.0262: real time    0.0264
    SETDIJ:  cpu time    0.5324: real time    0.5338
    EDDIAG:  cpu time    0.1684: real time    0.1688
  RMM-DIIS:  cpu time    0.6698: real time    0.6720
    ORTHCH:  cpu time    0.0166: real time    0.0166
 BZINTS: Fermi energy:  6.174510; 32.000000 electrons
         Band energy: 115.195957;  BLOECHL correction: -0.036210
       DOS:  cpu time    0.0424: real time    0.0425
    CHARGE:  cpu time    0.0653: real time    0.0655
    MIXING:  cpu time    0.0011: real time    0.0011
    --------------------------------------------
      LOOP:  cpu time    1.5222: real time    1.5268

 eigenvalue-minimisations  :  4659
 total energy-change (2. order) :-0.7713899E-05  (-0.1201819E-04)
 number of electron      32.0000008 magnetization       0.0000000
 augmentation part       16.5552021 magnetization       0.0000000

 Broyden mixing:
  rms(total) = 0.88348E-03    rms(broyden)= 0.88335E-03
  rms(prec ) = 0.95941E-03
  weight for this iteration     100.00

 eigenvalues of (default mixing * dielectric matrix)
  average eigenvalue GAMMA=   1.1555
  2.6996  1.8362  1.1643  0.9716  0.9716  0.8433  0.7124  0.6002  0.6002

 Free energy of the ion-electron system (eV)
  ---------------------------------------------------
  alpha Z        PSCENC =       244.44953260
  Ewald energy   TEWEN  =     -2371.85154731
  -Hartree energ DENC   =      -377.50800678
  -exchange      EXHF   =         0.00000000
  -V(xc)+E(xc)   XCENC  =        16.58607167
  PAW double counting   =      2867.64552506    -2904.02640004
  entropy T*S    EENTRO =         0.00000000
  eigenvalues    EBANDS =       115.19595661
  atomic energy  EATOM  =      2377.25072281
  Solvation  Ediel_sol  =         0.00000000
  ---------------------------------------------------
  free energy    TOTEN  =       -32.25814538 eV

  energy without entropy =      -32.25814538  energy(sigma->0) =      -32.25814538


--------------------------------------------------------------------------------------------------------




--------------------------------------- Iteration      1(  15)  ---------------------------------------


    POTLOK:  cpu time    0.0262: real time    0.0264
    SETDIJ:  cpu time    0.5380: real time    0.5392
    EDDIAG:  cpu time    0.1681: real time    0.1686
  RMM-DIIS:  cpu time    0.5144: real time    0.5159
    ORTHCH:  cpu time    0.0158: real time    0.0158
 BZINTS: Fermi energy:  6.174741; 32.000000 electrons
         Band energy: 115.196196;  BLOECHL correction: -0.036208
       DOS:  cpu time    0.0407: real time    0.0408
    CHARGE:  cpu time    0.0651: real time    0.0652
    MIXING:  cpu time    0.0010: real time    0.0010
    --------------------------------------------
      LOOP:  cpu time    1.3693: real time    1.3729

 eigenvalue-minimisations  :  3424
 total energy-change (2. order) : 0.1844163E-05  (-0.1299481E-05)
 number of electron      32.0000008 magnetization       0.0000000
 augmentation part       16.5551354 magnetization       0.0000000

 Broyden mixing:
  rms(total) = 0.45264E-03    rms(broyden)= 0.45258E-03
  rms(prec ) = 0.48586E-03
  weight for this iteration     100.00

 eigenvalues of (default mixing * dielectric matrix)
  average eigenvalue GAMMA=   1.1679
  2.7636  1.8835  1.4477  0.9647  0.9647  0.9580  0.8149  0.6832  0.5991  0.5991

 Free energy of the ion-electron system (eV)
  ---------------------------------------------------
  alpha Z        PSCENC =       244.44953260
  Ewald energy   TEWEN  =     -2371.85154731
  -Hartree energ DENC   =      -377.52075683
  -exchange      EXHF   =         0.00000000
  -V(xc)+E(xc)   XCENC  =        16.58923033
  PAW double counting   =      2867.65218292    -2904.02370420
  entropy T*S    EENTRO =         0.00000000
  eigenvalues    EBANDS =       115.19619615
  atomic energy  EATOM  =      2377.25072281
  Solvation  Ediel_sol  =         0.00000000
  ---------------------------------------------------
  free energy    TOTEN  =       -32.25814354 eV

  energy without entropy =      -32.25814354  energy(sigma->0) =      -32.25814354


--------------------------------------------------------------------------------------------------------




--------------------------------------- Iteration      1(  16)  ---------------------------------------


    POTLOK:  cpu time    0.0262: real time    0.0263
    SETDIJ:  cpu time    0.5457: real time    0.5470
    EDDIAG:  cpu time    0.1652: real time    0.1659
  RMM-DIIS:  cpu time    0.3820: real time    0.3832
    ORTHCH:  cpu time    0.0164: real time    0.0165
 BZINTS: Fermi energy:  6.174735; 32.000000 electrons
         Band energy: 115.192356;  BLOECHL correction: -0.036206
       DOS:  cpu time    0.0414: real time    0.0415
    CHARGE:  cpu time    0.0660: real time    0.0661
    MIXING:  cpu time    0.0012: real time    0.0012
    --------------------------------------------
      LOOP:  cpu time    1.2441: real time    1.2477

 eigenvalue-minimisations  :  2352
 total energy-change (2. order) : 0.2446878E-05  (-0.2884883E-06)
 number of electron      32.0000008 magnetization       0.0000000
 augmentation part       16.5552912 magnetization       0.0000000

 Broyden mixing:
  rms(total) = 0.38019E-03    rms(broyden)= 0.38018E-03
  rms(prec ) = 0.38846E-03
  weight for this iteration     100.00

 eigenvalues of (default mixing * dielectric matrix)
  average eigenvalue GAMMA=   1.1844
  2.7863  1.9206  1.9206  1.0897  0.9560  0.9560  0.7857  0.7857  0.5880  0.6199
  0.6199

 Free energy of the ion-electron system (eV)
  ---------------------------------------------------
  alpha Z        PSCENC =       244.44953260
  Ewald energy   TEWEN  =     -2371.85154731
  -Hartree energ DENC   =      -377.52502140
  -exchange      EXHF   =         0.00000000
  -V(xc)+E(xc)   XCENC  =        16.59143078
  PAW double counting   =      2867.52490866    -2903.89052328
  entropy T*S    EENTRO =         0.00000000
  eigenvalues    EBANDS =       115.19235605
  atomic energy  EATOM  =      2377.25072281
  Solvation  Ediel_sol  =         0.00000000
  ---------------------------------------------------
  free energy    TOTEN  =       -32.25814109 eV

  energy without entropy =      -32.25814109  energy(sigma->0) =      -32.25814109


--------------------------------------------------------------------------------------------------------




--------------------------------------- Iteration      1(  17)  ---------------------------------------


    POTLOK:  cpu time    0.0268: real time    0.0272
    SETDIJ:  cpu time    0.5333: real time    0.5348
    EDDIAG:  cpu time    0.1665: real time    0.1669
  RMM-DIIS:  cpu time    0.3355: real time    0.3363
    ORTHCH:  cpu time    0.0156: real time    0.0157
 BZINTS: Fermi energy:  6.174671; 32.000000 electrons
         Band energy: 115.191919;  BLOECHL correction: -0.036206
       DOS:  cpu time    0.0397: real time    0.0400
    --------------------------------------------
      LOOP:  cpu time    1.1174: real time    1.1208

 eigenvalue-minimisations  :  2037
 total energy-change (2. order) :-0.9315208E-06  (-0.9305724E-07)
 number of electron      32.0000008 magnetization       0.0000000
 augmentation part       16.5552912 magnetization       0.0000000

 Free energy of the ion-electron system (eV)
  ---------------------------------------------------
  alpha Z        PSCENC =       244.44953260
  Ewald energy   TEWEN  =     -2371.85154731
  -Hartree energ DENC   =      -377.52176802
  -exchange      EXHF   =         0.00000000
  -V(xc)+E(xc)   XCENC  =        16.59052283
  PAW double counting   =      2867.49157537    -2903.85909898
  entropy T*S    EENTRO =         0.00000000
  eigenvalues    EBANDS =       115.19191868
  atomic energy  EATOM  =      2377.25072281
  Solvation  Ediel_sol  =         0.00000000
  ---------------------------------------------------
  free energy    TOTEN  =       -32.25814202 eV

  energy without entropy =      -32.25814202  energy(sigma->0) =      -32.25814202


--------------------------------------------------------------------------------------------------------




 average (electrostatic) potential at core
  the test charge radii are     1.0103
  (the norm of the test charge is              1.0000)
       1 -43.3506       2 -43.3506       3 -43.3506       4 -43.3506
 
 
 
 E-fermi :   6.1747     XC(G=0): -13.1457     alpha+bet :-13.7060


 spin component 1

 k-point     1 :       0.0625    0.0625    0.0625
  band No.  band energies     occupation 
      1      -2.3224      1.00000
      2       1.1223      1.00000
      3       1.5248      1.00000
      4       1.5628      1.00000
      5       2.1698      1.00000
      6       3.3246      1.00000
      7       3.6918      1.00000
      8       3.8346      1.00000
      9       3.9017      1.00000
     10       4.4163      1.00000
     11       4.5236      1.00000
     12       4.6006      1.00000
     13       4.9836      1.00000
     14       5.3691      1.00000
     15       5.5967      1.00000
     16       5.8049      1.00000
     17       6.2704      0.01606
     18       6.6675      0.00000
     19       7.1766      0.00000
     20       7.3664      0.00000

 k-point     2 :       0.1875    0.0625    0.0625
  band No.  band energies     occupation 
      1      -1.6908      1.00000
      2       1.3369      1.00000
      3       1.6967      1.00000
      4       1.8072      1.00000
      5       2.3233      1.00000
      6       3.3451      1.00000
      7       3.5145      1.00000
      8       3.6259      1.00000
      9       3.8591      1.00000
     10       4.4339      1.00000
     11       4.4917      1.00000
     12       4.6819      1.00000
     13       4.8306      1.00000
     14       5.4194      1.00000
     15       5.8624      1.00000
     16       6.0060      1.00000
     17       6.1857      0.31668
     18       6.7052      0.00000
     19       6.9866      0.00000
     20       7.2272      0.00000

 k-point     3 :       0.3125    0.0625    0.0625
  band No.  band energies     occupation 
      1      -0.5298      1.00000
      2       1.4240      1.00000
      3       1.6554      1.00000
      4       2.1246      1.00000
      5       2.6565      1.00000
      6       3.1997      1.00000
      7       3.2546      1.00000
      8       4.0289      1.00000
      9       4.2023      1.00000
     10       4.2315      1.00000
     11       4.6526      1.00000
     12       4.7569      1.00000
     13       4.9575      1.00000
     14       5.3439      1.00000
     15       5.7448      1.00000
     16       5.9153      1.00000
     17       6.1981      0.12231
     18       6.6196      0.00000
     19       6.9064      0.00000
     20       7.1697      0.00000

 k-point     4 :       0.4375    0.0625    0.0625
  band No.  band energies     occupation 
      1       0.8643      1.00000
      2       1.3884      1.00000
      3       1.5072      1.00000
      4       1.9768      1.00000
      5       2.9958      1.00000
      6       3.0079      1.00000
      7       3.2135      1.00000
      8       3.7818      1.00000
      9       4.4898      1.00000
     10       4.6355      1.00000
     11       4.8448      1.00000
     12       4.9754      1.00000
     13       5.1748      1.00000
     14       5.4800      1.00000
     15       5.7882      1.00000
     16       5.8115      1.00000
     17       6.3053      0.00000
     18       6.3830      0.00000
     19       6.6986      0.00000
     20       6.8277      0.00000

 k-point     5 :       0.1875    0.1875    0.0625
  band No.  band energies     occupation 
      1      -1.0988      1.00000
      2       1.6570      1.00000
      3       1.9654      1.00000
      4       2.0593      1.00000
      5       2.4114      1.00000
      6       3.1150      1.00000
      7       3.2703      1.00000
      8       3.5280      1.00000
      9       3.8388      1.00000
     10       4.2334      1.00000
     11       4.3727      1.00000
     12       4.8517      1.00000
     13       5.0204      1.00000
     14       5.4026      1.00000
     15       5.6065      1.00000
     16       5.8905      1.01017
     17       5.9834      1.19965
     18       6.8545      0.00000
     19       7.0586      0.00000
     20       7.1791      0.00000

 k-point     6 :       0.3125    0.1875    0.0625
  band No.  band energies     occupation 
      1      -0.0442      1.00000
      2       1.8520      1.00000
      3       2.0331      1.00000
      4       2.2187      1.00000
      5       2.7122      1.00000
      6       3.0875      1.00000
      7       3.1364      1.00000
      8       3.6798      1.00000
      9       3.8912      1.00000
     10       4.0370      1.00000
     11       4.4378      1.00000
     12       4.8665      1.00000
     13       4.9612      1.00000
     14       5.1641      1.00000
     15       5.5008      1.00000
     16       5.8678      1.05821
     17       6.2440      0.07385
     18       6.9118      0.00000
     19       7.0257      0.00000
     20       7.1592      0.00000

 k-point     7 :       0.4375    0.1875    0.0625
  band No.  band energies     occupation 
      1       1.1401      1.00000
      2       1.8217      1.00000
      3       1.8800      1.00000
      4       1.9660      1.00000
      5       2.9482      1.00000
      6       2.9719      1.00000
      7       3.3168      1.00000
      8       3.6798      1.00000
      9       4.0448      1.00000
     10       4.2768      1.00000
     11       4.5575      1.00000
     12       4.7177      1.00000
     13       5.1072      1.00000
     14       5.3163      1.00000
     15       5.4496      1.00000
     16       6.1261      0.84418
     17       6.3761      0.00000
     18       6.7330      0.00000
     19       6.9228      0.00000
     20       7.0069      0.00000

 k-point     8 :       0.3125    0.3125    0.0625
  band No.  band energies     occupation 
      1       0.6985      1.00000
      2       2.0204      1.00000
      3       2.4175      1.00000
      4       2.4887      1.00000
      5       2.6895      1.00000
      6       3.0481      1.00000
      7       3.2879      1.00000
      8       3.4538      1.00000
      9       3.7467      1.00000
     10       4.0123      1.00000
     11       4.2192      1.00000
     12       4.4556      1.00000
     13       4.9894      1.00000
     14       5.0295      1.00000
     15       5.4848      1.00000
     16       6.3659      0.08536
     17       6.3862     -0.01232
     18       7.0963      0.00000
     19       7.1402      0.00000
     20       7.2473      0.00000

 k-point     9 :       0.4375    0.3125    0.0625
  band No.  band energies     occupation 
      1       1.3196      1.00000
      2       1.7287      1.00000
      3       2.4318      1.00000
      4       2.4420      1.00000
      5       2.8570      1.00000
      6       2.9736      1.00000
      7       3.5632      1.00000
      8       3.6074      1.00000
      9       3.8840      1.00000
     10       4.0658      1.00000
     11       4.2834      1.00000
     12       4.4019      1.00000
     13       5.0640      1.00000
     14       5.1607      1.00000
     15       5.6303      1.00000
     16       6.3169     -0.03837
     17       6.8944      0.00000
     18       7.1087      0.00000
     19       7.2049      0.00000
     20       7.3134      0.00000

 k-point    10 :       0.4375    0.4375    0.0625
  band No.  band energies     occupation 
      1       1.3662      1.00000
      2       1.4855      1.00000
      3       2.6043      1.00000
      4       2.6265      1.00000
      5       2.9643      1.00000
      6       3.1153      1.00000
      7       3.3244      1.00000
      8       3.4335      1.00000
      9       3.9364      1.00000
     10       3.9660      1.00000
     11       4.6903      1.00000
     12       5.0024      1.00000
     13       5.0776      1.00000
     14       5.1165      1.00000
     15       5.9563      1.00000
     16       6.4310     -0.05821
     17       7.2903      0.00000
     18       7.3692      0.00000
     19       7.4141      0.00000
     20       7.6936      0.00000

 k-point    11 :       0.0625    0.0625    0.1875
  band No.  band energies     occupation 
      1      -2.1621      1.00000
      2       0.5564      1.00000
      3       1.5457      1.00000
      4       1.6023      1.00000
      5       2.4494      1.00000
      6       3.1659      1.00000
      7       3.7014      1.00000
      8       3.8025      1.00000
      9       3.9017      1.00000
     10       4.4917      1.00000
     11       4.5752      1.00000
     12       4.6670      1.00000
     13       4.9934      1.00000
     14       5.4026      1.00000
     15       5.6702      1.00000
     16       5.7673      1.00000
     17       6.2712      0.10263
     18       6.6326      0.00000
     19       7.0549      0.00000
     20       7.3593      0.00000

 k-point    12 :       0.1875    0.0625    0.1875
  band No.  band energies     occupation 
      1      -1.5391      1.00000
      2       0.8874      1.00000
      3       1.7405      1.00000
      4       1.8578      1.00000
      5       2.5100      1.00000
      6       3.2607      1.00000
      7       3.5041      1.00000
      8       3.6251      1.00000
      9       3.8105      1.00000
     10       4.4279      1.00000
     11       4.5263      1.00000
     12       4.7153      1.00000
     13       4.8937      1.00000
     14       5.3958      1.00000
     15       5.8919      1.00000
     16       5.9402      1.00392
     17       6.0680      1.08583
     18       6.6080      0.00000
     19       6.9338      0.00000
     20       7.3745      0.00000

 k-point    13 :       0.3125    0.0625    0.1875
  band No.  band energies     occupation 
      1      -0.4007      1.00000
      2       1.2101      1.00000
      3       1.7818      1.00000
      4       2.1994      1.00000
      5       2.6443      1.00000
      6       3.1898      1.00000
      7       3.3112      1.00000
      8       3.8888      1.00000
      9       4.1005      1.00000
     10       4.1585      1.00000
     11       4.5711      1.00000
     12       4.8085      1.00000
     13       4.9579      1.00000
     14       5.2860      1.00000
     15       5.7041      1.00000
     16       5.8692      1.00791
     17       6.1841      0.26774
     18       6.5439      0.00000
     19       6.8820      0.00000
     20       7.2193      0.00000

 k-point    14 :       0.4375    0.0625    0.1875
  band No.  band energies     occupation 
      1       0.9404      1.00000
      2       1.3538      1.00000
      3       1.6110      1.00000
      4       2.0562      1.00000
      5       3.0219      1.00000
      6       3.0313      1.00000
      7       3.1813      1.00000
      8       3.6747      1.00000
      9       4.3533      1.00000
     10       4.5528      1.00000
     11       4.7788      1.00000
     12       4.9110      1.00000
     13       5.0760      1.00000
     14       5.4837      1.00000
     15       5.6340      1.00000
     16       5.9149      1.00723
     17       6.2533      0.00000
     18       6.3698      0.00000
     19       6.6988      0.00000
     20       6.9870      0.00000

 k-point    15 :       0.1875    0.1875    0.1875
  band No.  band energies     occupation 
      1      -0.9515      1.00000
      2       1.2937      1.00000
      3       2.0004      1.00000
      4       2.0777      1.00000
      5       2.6292      1.00000
      6       3.0651      1.00000
      7       3.2964      1.00000
      8       3.4621      1.00000
      9       3.7590      1.00000
     10       4.1739      1.00000
     11       4.3628      1.00000
     12       4.8817      1.00000
     13       4.9536      1.00000
     14       5.4036      1.00000
     15       5.5669      1.00000
     16       6.0239      1.00477
     17       6.0393      0.99078
     18       6.8075      0.00000
     19       7.0606      0.00000
     20       7.2049      0.00000

 k-point    16 :       0.3125    0.1875    0.1875
  band No.  band energies     occupation 
      1       0.0899      1.00000
      2       1.6936      1.00000
      3       2.1332      1.00000
      4       2.2960      1.00000
      5       2.7194      1.00000
      6       3.0724      1.00000
      7       3.1585      1.00000
      8       3.5461      1.00000
      9       3.8310      1.00000
     10       3.9012      1.00000
     11       4.4081      1.00000
     12       4.6514      1.00000
     13       4.9558      1.00000
     14       5.3309      1.00000
     15       5.4456      1.00000
     16       6.0782      0.92451
     17       6.2596      0.04456
     18       6.8583      0.00000
     19       7.0624      0.00000
     20       7.1196      0.00000

 k-point    17 :       0.4375    0.1875    0.1875
  band No.  band energies     occupation 
      1       1.2432      1.00000
      2       1.8030      1.00000
      3       1.9556      1.00000
      4       2.0654      1.00000
      5       2.9661      1.00000
      6       2.9767      1.00000
      7       3.2817      1.00000
      8       3.5845      1.00000
      9       3.9120      1.00000
     10       4.1296      1.00000
     11       4.4962      1.00000
     12       4.7059      1.00000
     13       5.1200      1.00000
     14       5.2451      1.00000
     15       5.3757      1.00000
     16       6.1191      0.91997
     17       6.5026      0.00000
     18       6.7487      0.00000
     19       6.9272      0.00000
     20       7.0484      0.00000

 k-point    18 :       0.3125    0.3125    0.1875
  band No.  band energies     occupation 
      1       0.8354      1.00000
      2       2.1029      1.00000
      3       2.3904      1.00000
      4       2.5388      1.00000
      5       2.6943      1.00000
      6       3.0717      1.00000
      7       3.2355      1.00000
      8       3.2754      1.00000
      9       3.6699      1.00000
     10       3.8710      1.00000
     11       4.2150      1.00000
     12       4.3597      1.00000
     13       5.0007      1.00000
     14       5.1640      1.00000
     15       5.3866      1.00000
     16       6.3581     -0.03083
     17       6.5869     -0.03040
     18       7.0737      0.00000
     19       7.1362      0.00000
     20       7.2425      0.00000

 k-point    19 :       0.4375    0.3125    0.1875
  band No.  band energies     occupation 
      1       1.4362      1.00000
      2       1.8198      1.00000
      3       2.4429      1.00000
      4       2.4502      1.00000
      5       2.8993      1.00000
      6       3.0031      1.00000
      7       3.4488      1.00000
      8       3.5557      1.00000
      9       3.7443      1.00000
     10       3.9474      1.00000
     11       4.2675      1.00000
     12       4.4120      1.00000
[...]
     14       5.1562      1.00000
     15       5.8308      1.00000
     16       6.2607      0.18307
     17       6.3002     -0.03006
     18       6.5105      0.00000
     19       6.6110      0.00000
     20       7.0309      0.00000

 k-point    35 :       0.1875    0.1875    0.4375
  band No.  band energies     occupation 
      1      -0.2600      1.00000
      2       0.2473      1.00000
      3       2.1273      1.00000
      4       2.1451      1.00000
      5       2.9596      1.00000
      6       2.9638      1.00000
      7       3.3359      1.00000
      8       3.4132      1.00000
      9       3.5122      1.00000
     10       4.0919      1.00000
     11       4.3401      1.00000
     12       4.6013      1.00000
     13       4.9550      1.00000
     14       5.4664      1.00000
     15       5.6500      1.00000
     16       6.1918      0.56966
     17       6.3058      0.00430
     18       6.5216      0.00000
     19       6.9049      0.00000
     20       7.2517      0.00000

 k-point    36 :       0.3125    0.1875    0.4375
  band No.  band energies     occupation 
      1       0.6910      1.00000
      2       1.0833      1.00000
      3       2.3182      1.00000
      4       2.5276      1.00000
      5       2.6738      1.00000
      6       3.1055      1.00000
      7       3.1733      1.00000
      8       3.3796      1.00000
      9       3.5120      1.00000
     10       3.6647      1.00000
     11       4.2894      1.00000
     12       4.3395      1.00000
     13       4.9892      1.00000
     14       5.4008      1.00000
     15       5.5350      1.00000
     16       6.3827      0.00222
     17       6.4525     -0.05236
     18       6.7059      0.00000
     19       7.0309      0.00000
     20       7.0892      0.00000

 k-point    37 :       0.4375    0.1875    0.4375
  band No.  band energies     occupation 
      1       1.6026      1.00000
      2       1.7283      1.00000
      3       2.2434      1.00000
      4       2.3391      1.00000
      5       2.7376      1.00000
      6       3.0734      1.00000
      7       3.2831      1.00000
      8       3.3313      1.00000
      9       3.5860      1.00000
     10       3.7862      1.00000
     11       4.3159      1.00000
     12       4.4421      1.00000
     13       5.0488      1.00000
     14       5.2182      1.00000
     15       5.4793      1.00000
     16       6.1070      0.85022
     17       6.5861     -0.00694
     18       6.7978      0.00000
     19       7.0184      0.00000
     20       7.1716      0.00000

 k-point    38 :       0.3125    0.3125    0.4375
  band No.  band energies     occupation 
      1       1.4507      1.00000
      2       1.8960      1.00000
      3       2.3760      1.00000
      4       2.6502      1.00000
      5       2.7066      1.00000
      6       3.0252      1.00000
      7       3.1613      1.00000
      8       3.2123      1.00000
      9       3.3596      1.00000
     10       3.5317      1.00000
     11       4.0921      1.00000
     12       4.2062      1.00000
     13       5.0332      1.00000
     14       5.2829      1.00000
     15       5.4313      1.00000
     16       6.2656      0.31331
     17       6.8389     -0.00042
     18       6.9261      0.00000
     19       7.2199      0.00000
     20       7.5338      0.00000

 k-point    39 :       0.4375    0.3125    0.4375
  band No.  band energies     occupation 
      1       1.8917      1.00000
      2       2.1197      1.00000
      3       2.3388      1.00000
      4       2.4629      1.00000
      5       2.9140      1.00000
      6       3.0650      1.00000
      7       3.1512      1.00000
      8       3.3405      1.00000
      9       3.6039      1.00000
     10       3.7284      1.00000
     11       4.1723      1.00000
     12       4.2782      1.00000
     13       5.1728      1.00000
     14       5.2161      1.00000
     15       5.2339      1.00000
     16       5.8611      1.04895
     17       6.9966      0.00000
     18       7.1489      0.00000
     19       7.2965      0.00000
     20       7.5354      0.00000

 k-point    40 :       0.4375    0.4375    0.4375
  band No.  band energies     occupation 
      1       1.8315      1.00000
      2       1.8868      1.00000
      3       2.5244      1.00000
      4       2.5941      1.00000
      5       2.7247      1.00000
      6       2.9077      1.00000
      7       3.2712      1.00000
      8       3.3068      1.00000
      9       4.1904      1.00000
     10       4.1953      1.00000
     11       4.3907      1.00000
     12       4.6055      1.00000
     13       5.0103      1.00000
     14       5.1776      1.00000
     15       5.1947      1.00000
     16       5.5367      1.01514
     17       7.2774      0.00000
     18       7.3307      0.00000
     19       7.5578      0.00000
     20       7.6921      0.00000


--------------------------------------------------------------------------------------------------------


 soft charge-density along one line, spin component           1
         0         1         2         3         4         5         6         7         8         9
 total charge-density along one line
 
 soft charge-density along one line, spin component           2
         0         1         2         3         4         5         6         7         8         9
 total charge-density along one line
 
 pseudopotential strength for first ion, spin component:           1
 -5.539   0.000   0.000   0.000  -0.000  -6.071   0.000   0.000
  0.000  -5.533  -0.000  -0.000   0.000   0.000  -6.065  -0.000
  0.000  -0.000  -5.806  -0.000   0.000   0.000  -0.000  -6.329
  0.000  -0.000  -0.000  -5.533  -0.000   0.000  -0.000  -0.000
 -0.000   0.000   0.000  -0.000  -5.767  -0.000   0.000   0.000
 -6.071   0.000   0.000   0.000  -0.000  -6.561   0.000   0.000
  0.000  -6.065  -0.000  -0.000   0.000   0.000  -6.556  -0.000
  0.000  -0.000  -6.329  -0.000   0.000   0.000  -0.000  -6.811
  0.000  -0.000  -0.000  -6.065  -0.000   0.000  -0.000  -0.000
 -0.000   0.000   0.000  -0.000  -6.292  -0.000   0.000   0.000
  0.000   0.000   0.003   0.000  -0.000   0.000   0.000   0.003
  0.000   0.000   0.005   0.000  -0.000   0.000   0.000   0.005
  0.000   0.011   0.000   0.000   0.000   0.000   0.011   0.000
  0.000  -0.000   0.005  -0.000   0.000   0.000  -0.000   0.005
 -0.000   0.000  -0.000   0.011  -0.000  -0.000   0.000  -0.000
  0.000   0.015   0.000   0.000   0.000   0.000   0.014   0.000
  0.000  -0.000   0.006  -0.000   0.000   0.000  -0.000   0.006
 -0.000   0.000  -0.000   0.015  -0.000  -0.000   0.000  -0.000
 pseudopotential strength for first ion, spin component:           2
 -4.219  -0.000   0.000  -0.000  -0.000  -4.792  -0.000   0.000
 -0.000  -4.262  -0.000  -0.000   0.000  -0.000  -4.834  -0.000
  0.000  -0.000  -3.966  -0.000  -0.000   0.000  -0.000  -4.548
 -0.000  -0.000  -0.000  -4.262  -0.000  -0.000  -0.000  -0.000
 -0.000   0.000  -0.000  -0.000  -3.969  -0.000   0.000  -0.000
 -4.792  -0.000   0.000  -0.000  -0.000  -5.322  -0.000   0.000
 -0.000  -4.834  -0.000  -0.000   0.000  -0.000  -5.362  -0.000
  0.000  -0.000  -4.548  -0.000  -0.000   0.000  -0.000  -5.087
 -0.000  -0.000  -0.000  -4.834  -0.000  -0.000  -0.000  -0.000
 -0.000   0.000  -0.000  -0.000  -4.551  -0.000   0.000  -0.000
  0.000   0.000   0.003   0.000   0.000   0.000   0.000   0.003
  0.000   0.000   0.005   0.000   0.000   0.000   0.000   0.005
  0.000  -0.003   0.000   0.000   0.000   0.000  -0.002   0.000
  0.000  -0.000   0.009  -0.000   0.000   0.000  -0.000   0.009
 -0.000   0.000  -0.000  -0.003  -0.000  -0.000   0.000  -0.000
  0.000  -0.003   0.000   0.000   0.000   0.000  -0.003   0.000
  0.000  -0.000   0.010  -0.000   0.000   0.000  -0.000   0.010
 -0.000   0.000  -0.000  -0.003  -0.000  -0.000   0.000  -0.000
 total augmentation occupancy for first ion, spin component:           1
  2.204  -0.000   0.000   0.000   0.000  -1.152   0.000   0.000  -0.000  -0.000   0.000   0.000  -0.000   0.000  -0.000   0.000
 -0.000   1.986   0.000  -0.000   0.000   0.000  -0.998  -0.000   0.000   0.000  -0.000   0.000  -0.001   0.000  -0.000  -0.005
  0.000  -0.000   3.545  -0.000   0.000  -0.000   0.000  -2.300   0.000   0.000  -0.057  -0.006   0.000   0.085   0.000   0.000
 -0.000   0.000   0.000   1.986  -0.000   0.000  -0.000   0.000  -0.998   0.000   0.000  -0.000   0.000  -0.000  -0.001   0.000
 -0.000   0.000   0.000  -0.000   3.543  -0.000  -0.000   0.000   0.000  -2.305   0.000   0.000  -0.000  -0.000   0.000   0.000
 -1.152  -0.000   0.000   0.000  -0.000   1.537  -0.000   0.000   0.000   0.000  -0.000   0.000   0.000   0.000   0.000   0.000
  0.000  -0.998   0.000  -0.000   0.000   0.000   1.424  -0.000  -0.000   0.000   0.000  -0.000   0.012  -0.000  -0.000   0.000
  0.000  -0.000  -2.300  -0.000   0.000   0.000  -0.000   2.269  -0.000   0.000   0.028   0.007   0.000  -0.053   0.000   0.000
 -0.000   0.000  -0.000  -0.998   0.000  -0.000   0.000  -0.000   1.424   0.000   0.000  -0.000   0.000  -0.000   0.012  -0.000
 -0.000  -0.000  -0.000   0.000  -2.305  -0.000   0.000   0.000   0.000   2.285   0.000   0.000   0.000  -0.000   0.000   0.000
  0.000   0.000  -0.057  -0.000  -0.000  -0.000  -0.000   0.028  -0.000   0.000   2.418  -0.269   0.000   0.006   0.000   0.000
 -0.000   0.000  -0.006  -0.000   0.000   0.000  -0.000   0.007  -0.000   0.000  -0.269   0.037   0.000  -0.001  -0.000   0.000
  0.000  -0.001  -0.000  -0.000  -0.000   0.000   0.012  -0.000  -0.000  -0.000   0.000   0.000   0.298   0.000  -0.000  -0.025
  0.000   0.000   0.085   0.000   0.000   0.000   0.000  -0.053  -0.000   0.000   0.006  -0.001   0.000   0.298   0.000   0.000
  0.000   0.000  -0.000  -0.001  -0.000   0.000  -0.000   0.000   0.012   0.000   0.000   0.000   0.000   0.000   0.298   0.000
 -0.000  -0.005   0.000   0.000  -0.000   0.000   0.000   0.000   0.000   0.000   0.000   0.000  -0.025   0.000   0.000   0.002
  0.000  -0.000  -0.001   0.000   0.000   0.000   0.000  -0.001   0.000  -0.000  -0.002   0.000  -0.000  -0.025   0.000   0.000
  0.000   0.000  -0.000  -0.005   0.000   0.000   0.000   0.000   0.000  -0.000   0.000   0.000   0.000   0.000  -0.025   0.000
 total augmentation occupancy for first ion, spin component:           2
  1.476   0.000   0.000  -0.000  -0.000  -0.523   0.000   0.000   0.000   0.000   0.000   0.000   0.000  -0.000   0.000   0.000
 -0.000   1.222   0.000  -0.000   0.000   0.000  -0.392  -0.000   0.000   0.000  -0.000   0.000  -0.077   0.000   0.000   0.002
  0.000   0.000   2.878  -0.000   0.000  -0.000  -0.000  -1.308   0.000   0.000  -0.070  -0.006  -0.000   0.103   0.000   0.000
 -0.000  -0.000   0.000   1.222   0.000   0.000  -0.000  -0.000  -0.392  -0.000  -0.000  -0.000  -0.000  -0.000  -0.077  -0.000
 -0.000   0.000  -0.000  -0.000   2.912  -0.000   0.000   0.000  -0.000  -1.363   0.000   0.000   0.000   0.000  -0.000  -0.000
 -0.523   0.000  -0.000  -0.000   0.000  -0.063   0.000   0.000  -0.000  -0.000   0.000   0.000   0.000   0.000   0.000   0.000
 -0.000  -0.392  -0.000  -0.000   0.000  -0.000  -0.109   0.000   0.000  -0.000   0.000  -0.000   0.033  -0.000  -0.000  -0.004
  0.000  -0.000  -1.308  -0.000  -0.000   0.000   0.000   0.459  -0.000   0.000   0.077   0.004  -0.000  -0.096   0.000   0.000
  0.000   0.000  -0.000  -0.392   0.000   0.000   0.000   0.000  -0.109  -0.000  -0.000   0.000   0.000   0.000   0.033  -0.000
  0.000  -0.000   0.000  -0.000  -1.363   0.000   0.000   0.000   0.000   0.506   0.000  -0.000   0.000  -0.000   0.000   0.000
  0.000  -0.000  -0.070  -0.000   0.000   0.000   0.000   0.077  -0.000   0.000  -0.221   0.093  -0.000  -0.028   0.000   0.000
  0.000  -0.000  -0.006   0.000   0.000   0.000   0.000   0.004   0.000  -0.000   0.093  -0.016  -0.000  -0.003  -0.000   0.000
  0.000  -0.077   0.000   0.000   0.000   0.000   0.033   0.000  -0.000  -0.000  -0.000  -0.000  -0.017   0.000   0.000   0.006
  0.000   0.000   0.103   0.000   0.000   0.000  -0.000  -0.096   0.000   0.000  -0.028  -0.003   0.000  -0.001   0.000   0.000
  0.000  -0.000  -0.000  -0.077   0.000   0.000   0.000   0.000   0.033  -0.000   0.000   0.000   0.000   0.000  -0.017   0.000
 -0.000   0.002   0.000   0.000   0.000   0.000  -0.004   0.000  -0.000   0.000   0.000  -0.000   0.006   0.000   0.000  -0.001
  0.000   0.000  -0.002   0.000  -0.000   0.000  -0.000   0.003  -0.000   0.000  -0.001   0.000   0.000   0.005   0.000   0.000
  0.000   0.000  -0.000   0.002  -0.000  -0.000   0.000  -0.000  -0.004  -0.000   0.000   0.000   0.000   0.000   0.006   0.000


------------------------ aborting loop because EDIFF is reached ----------------------------------------


 


 total charge     
 
# of ion       s       p       d       tot
------------------------------------------
    1        0.498   0.555   6.223   7.276
    2        0.498   0.555   6.223   7.276
    3        0.498   0.555   6.223   7.276
    4        0.498   0.555   6.223   7.276
--------------------------------------------------
tot          1.993   2.219  24.894  29.106
 


 magnetization (x)
 
# of ion       s       p       d       tot
------------------------------------------
    1        0.014  -0.001   2.110   2.123
    2        0.014  -0.001   2.110   2.123
    3       -0.014   0.001  -2.110  -2.123
    4       -0.014   0.001  -2.110  -2.123
--------------------------------------------------
tot         -0.000   0.000  -0.000  -0.000
 
    CHARGE:  cpu time    0.0656: real time    0.0657
    FORLOC:  cpu time    0.0009: real time    0.0009
    FORNL :  cpu time    0.1555: real time    0.1559
    STRESS:  cpu time    0.2147: real time    0.2152
    FORCOR:  cpu time    0.0264: real time    0.0264
    FORHAR:  cpu time    0.0029: real time    0.0029
    MIXING:  cpu time    0.0011: real time    0.0011
    OFIELD:  cpu time    0.0000: real time    0.0000

  FORCE on cell =-STRESS in cart. coord.  units (eV):
  Direction    XX          YY          ZZ          XY          YZ          ZX
  --------------------------------------------------------------------------------------
  Alpha Z   244.44953   244.44953   244.44953
  Ewald    -790.61788  -790.61788  -790.61788     0.00000    -0.00000    -0.00000
  Hartree   126.19667   126.19667   125.13405    -0.00000    -0.00000    -0.00000
  E(xc)    -158.42448  -158.42448  -158.25154    -0.00000     0.00000    -0.00000
  Local     234.67705   234.67705   237.68871     0.00000     0.00000    -0.00000
  n-local  -105.72660   -97.77103  -102.86058     2.19039     0.52095    -0.70652
  augment   154.78179   154.78179   153.86427    -0.00000    -0.00000     0.00000
  Kinetic   295.65941   288.44108   289.43751     2.63978    -0.46366    -0.04067
  Fock        0.00000     0.00000     0.00000     0.00000     0.00000     0.00000
  -------------------------------------------------------------------------------------
  Total       1.36411     1.36411    -1.15592     0.00000     0.00000     0.00000
  in kB      48.31315    48.31315   -40.93968     0.00000     0.00000     0.00000
  external pressure =       18.56 kB  Pullay stress =        0.00 kB


 VOLUME and BASIS-vectors are now :
 -----------------------------------------------------------------------------
  energy-cutoff  :      520.00
  volume of cell :       45.24
      direct lattice vectors                 reciprocal lattice vectors
     2.828059000  0.000000000  0.000000000     0.353599412  0.000000000  0.000000000
     0.000000000  2.828059000  0.000000000     0.000000000  0.353599412  0.000000000
     0.000000000  0.000000000  5.656118000     0.000000000  0.000000000  0.176799706

  length of vectors
     2.828059000  2.828059000  5.656118000     0.353599412  0.353599412  0.176799706


 FORCES acting on ions
    electron-ion (+dipol)            ewald-force                    non-local-force                 convergence-correction
 -----------------------------------------------------------------------------------------------
   -.931E-14 -.858E-14 0.105E+01   0.143E-14 0.449E-14 0.000E+00   -.108E-17 0.867E-18 -.766E+00   0.463E-14 0.368E-14 0.316E-03
   0.148E-12 0.230E-12 -.105E+01   -.968E-16 0.109E-14 -.159E-13   0.195E-17 0.000E+00 0.766E+00   0.137E-13 -.492E-14 -.316E-03
   -.916E-14 -.862E-14 0.105E+01   -.263E-15 0.920E-15 0.000E+00   -.108E-17 0.867E-18 -.766E+00   0.517E-14 0.512E-14 0.316E-03
   0.149E-12 -.114E-11 -.105E+01   -.179E-14 -.247E-14 0.000E+00   0.195E-17 0.000E+00 0.766E+00   0.126E-13 -.420E-14 -.316E-03
 -----------------------------------------------------------------------------------------------
   0.278E-12 -.927E-12 -.373E-12   -.719E-15 0.403E-14 -.159E-13   0.173E-17 0.173E-17 0.122E-14   0.361E-13 -.330E-15 0.132E-13
 
 
 POSITION                                       TOTAL-FORCE (eV/Angst)
 -----------------------------------------------------------------------------------
      0.00000      0.00000      0.00000        -0.000000      0.000000      0.280020
      1.41403      1.41403      1.41403         0.000000     -0.000000     -0.280020
      0.00000      0.00000      2.82806        -0.000000      0.000000      0.280020
      1.41403      1.41403      4.24209         0.000000     -0.000000     -0.280020
 -----------------------------------------------------------------------------------
    total drift:                                0.000000     -0.000000     -0.000000


--------------------------------------------------------------------------------------------------------



  FREE ENERGIE OF THE ION-ELECTRON SYSTEM (eV)
  ---------------------------------------------------
  free  energy   TOTEN  =       -32.25814202 eV

  energy  without entropy=      -32.25814202  energy(sigma->0) =      -32.25814202
 


--------------------------------------------------------------------------------------------------------


    POTLOK:  cpu time    0.5731: real time    0.5748


--------------------------------------------------------------------------------------------------------


     LOOP+:  cpu time   23.4406: real time   23.5151
    4ORBIT:  cpu time    0.0000: real time    0.0000
 


 total charge     
 
# of ion       s       p       d       tot
------------------------------------------
    1        0.498   0.555   6.223   7.276
    2        0.498   0.555   6.223   7.276
    3        0.498   0.555   6.223   7.276
    4        0.498   0.555   6.223   7.276
--------------------------------------------------
tot          1.993   2.219  24.894  29.106
 


 magnetization (x)
 
# of ion       s       p       d       tot
------------------------------------------
    1        0.014  -0.001   2.110   2.123
    2        0.014  -0.001   2.110   2.123
    3       -0.014   0.001  -2.110  -2.123
    4       -0.014   0.001  -2.110  -2.123
--------------------------------------------------
tot         -0.000   0.000  -0.000  -0.000
 
 BZINTS: Fermi energy:  6.174671; 32.000000 electrons
         Band energy: 115.191919;  BLOECHL correction: -0.036206

 total amount of memory used by VASP MPI-rank0    39562. kBytes
=======================================================================

   base      :      30000. kBytes
   nonl-proj :       1886. kBytes
   fftplans  :       1006. kBytes
   grid      :       2262. kBytes
   one-center:         31. kBytes
   wavefun   :       4377. kBytes
 
  
  
 General timing and accounting informations for this job:
 ========================================================
  
                  Total CPU time used (sec):       24.616
                            User time (sec):       24.078
                          System time (sec):        0.538
                         Elapsed time (sec):       24.735
  
                   Maximum memory used (kb):       66024.
                   Average memory used (kb):           0.
  
                          Minor page faults:        19883
                          Major page faults:            0
                 Voluntary context switches:          100
