unknown system                          
   1.00000000000000     
     1.649466    1.258417    1.258417
     1.649466   -1.258417   -1.258417
     0.000000    2.758996   -2.758996
   Fe
     2
Direct
  0.500000  0.500000  0.500000
  0.000000  0.000000  0.000000
 
   36   36   60
 0.11638944961E+04 0.17575288394E+04 0.30640956325E+03 0.39001057535E+03 0.49922677110E+03
 0.42901084416E+03 0.30492694570E+03 0.19872607093E+03 0.12524796674E+03 0.78768177834E+02
 0.50493442532E+02 0.33531036058E+02 0.23356181481E+02 0.17207443934E+02 0.13454585335E+02
 0.11118875383E+02 0.97777621762E+01 0.90355592186E+01 0.87996856379E+01 0.90355592186E+01
 0.97777621762E+01 0.11118875383E+02 0.13454585335E+02 0.17207443934E+02 0.23356181481E+02
 0.33531036058E+02 0.50493442532E+02 0.78768177834E+02 0.12524796674E+03 0.19872607093E+03
 0.30492694570E+03 0.42901084416E+03 0.49922677110E+03 0.39001057535E+03 0.30640956325E+03
 0.17575288394E+04 0.17575288394E+04 0.92119063217E+03 0.22610073494E+03 0.38203128539E+03
 0.48651787058E+03 0.42051491831E+03 0.30147487468E+03 0.19797773851E+03 0.12551151314E+03
 0.79264396682E+02 0.50946103381E+02 0.33874283829E+02 0.23595681495E+02 0.17365814063E+02
 0.13552631993E+02 0.11167472601E+02 0.97932827724E+01 0.90160628864E+01 0.87403260398E+01
 0.89258014354E+01 0.96000334393E+01 0.10849388688E+02 0.12786611086E+02 0.16505909162E+02
 0.22209816866E+02 0.31616469226E+02 0.47243207422E+02 0.73198896700E+02 0.11574157164E+03
 0.18294647656E+03 0.28063618265E+03 0.39793505301E+03 0.47630402916E+03 0.39939926632E+03
 0.21361286598E+03 0.73149506810E+03 0.30640956325E+03 0.22610073494E+03 0.24289435142E+03
 0.39987283902E+03 0.44770211549E+03 0.37731963284E+03 0.27206370734E+03 0.18112198402E+03
 0.11651177223E+03 0.74575348959E+02 0.48500679432E+02 0.32575134167E+02 0.22881586122E+02
 0.16951609323E+02 0.13292570034E+02 0.10987168574E+02 0.96426074215E+01 0.88678295447E+01
 0.85680260761E+01 0.86993058176E+01 0.92817171399E+01 0.10392758872E+02 0.12140031527E+02
 0.15375875526E+02 0.20363229833E+02 0.28516800145E+02 0.41926254975E+02 0.63960381107E+02
 0.99693092359E+02 0.15568756175E+03 0.23726007080E+03 0.33915635454E+03 0.42626464689E+03
 0.42245717146E+03 0.28965630872E+03 0.21361286598E+03 0.39001057535E+03 0.38203128539E+03
 0.39987283902E+03 0.42360871580E+03 0.39364696899E+03 0.31545863812E+03 0.22726154811E+03
 0.15369895864E+03 0.10090573817E+03 0.65936478340E+02 0.43729615897E+02 0.29903147894E+02
 0.21344728195E+02 0.16031223828E+02 0.12709899503E+02 0.10597650546E+02 0.93404976553E+01
 0.86045336163E+01 0.82990717635E+01 0.83790572028E+01 0.88574493035E+01 0.98011436111E+01
 0.11309589540E+02 0.13981203307E+02 0.18114469360E+02 0.24781650428E+02 0.35586543975E+02
 0.53064069068E+02 0.80973041510E+02 0.12420155821E+03 0.18729755639E+03 0.26980903394E+03
 0.35753139187E+03 0.41760492436E+03 0.42245717146E+03 0.39939926632E+03 0.49922677110E+03
 0.48651787058E+03 0.44770211549E+03 0.39364696899E+03 0.32495097311E+03 0.24894088625E+03
 0.17874681418E+03 0.12280530759E+03 0.82515814199E+02 0.55309412786E+02 0.37627737579E+02
 0.26366405810E+02 0.19248322771E+02 0.14745767916E+02 0.11721379200E+02 0.10042274364E+02
 0.89176956012E+01 0.82506117508E+01 0.79573921248E+01 0.79942651500E+01 0.83681726750E+01
 0.91346858905E+01 0.10382578465E+02 0.12493057175E+02 0.15762314285E+02 0.20949861896E+02
 0.29209402456E+02 0.42327007291E+02 0.62913137903E+02 0.94396268741E+02 0.14039913442E+03
 0.20283986471E+03 0.27864002990E+03 0.35753139187E+03 0.42626464689E+03 0.47630402916E+03
 0.42901084416E+03 0.42051491831E+03 0.37731963284E+03 0.31545863812E+03 0.24894088625E+03
 0.18676062398E+03 0.13435439732E+03 0.93857725396E+02 0.64634407226E+02 0.44564344183E+02
 0.31224885344E+02 0.22527557326E+02 0.16903352488E+02 0.13269445169E+02 0.10817529628E+02
 0.93792813470E+01 0.84150737436E+01 0.78369960746E+01 0.75706372917E+01 0.75755880447E+01
 0.78542085397E+01 0.84509602587E+01 0.94422236470E+01 0.10914402325E+02 0.13541648096E+02
 0.17420805865E+02 0.23479058519E+02 0.32919092480E+02 0.47473263830E+02 0.69438920755E+02
 0.10145274907E+03 0.14575684382E+03 0.20283986471E+03 0.26980903394E+03 0.33915635454E+03
 0.39793505301E+03 0.30492694570E+03 0.30147487468E+03 0.27206370734E+03 0.22726154811E+03
 0.17874681418E+03 0.13435439732E+03 0.97725120214E+02 0.69625915526E+02 0.49211828617E+02
 0.34966101303E+02 0.25298809342E+02 0.18851440450E+02 0.14585930134E+02 0.11767856082E+02
 0.98571954575E+01 0.86708718723E+01 0.78763761389E+01 0.73961084119E+01 0.71661556512E+01
 0.71509483077E+01 0.73497611515E+01 0.77968825453E+01 0.85555670874E+01 0.97041479452E+01
 0.11595955992E+02 0.14413729656E+02 0.18729280850E+02 0.25324505082E+02 0.35315600544E+02
 0.50178851477E+02 0.71665601536E+02 0.10145274907E+03 0.14039913442E+03 0.18729755639E+03
 0.23726007080E+03 0.28063618265E+03 0.19872607093E+03 0.19797773851E+03 0.18112198402E+03
 0.15369895864E+03 0.12280530759E+03 0.93857725396E+02 0.69625915526E+02 0.50807051877E+02
 0.36938221939E+02 0.27090648707E+02 0.20274030893E+02 0.15629164469E+02 0.12488014039E+02
 0.10242532188E+02 0.89187714560E+01 0.79730929591E+01 0.73414518015E+01 0.69573254610E+01
 0.67677176076E+01 0.67427013780E+01 0.68797931203E+01 0.72044904297E+01 0.77671607965E+01
 0.86351984557E+01 0.98789953556E+01 0.11993938662E+02 0.15013819322E+02 0.19540817637E+02
 0.26274648427E+02 0.36129533144E+02 0.50178851477E+02 0.69438920755E+02 0.94396268741E+02
 0.12420155821E+03 0.15568756175E+03 0.18294647656E+03 0.12524796674E+03 0.12551151314E+03
 0.11651177223E+03 0.10090573817E+03 0.82515814199E+02 0.64634407226E+02 0.49211828617E+02
 0.36938221939E+02 0.27697470470E+02 0.21001463995E+02 0.16271591223E+02 0.12981158440E+02
 0.10708231806E+02 0.90967345359E+01 0.80610638005E+01 0.73288074671E+01 0.68414537551E+01
 0.65438140637E+01 0.63934985752E+01 0.63664163333E+01 0.64593638909E+01 0.66906141337E+01
 0.70986812764E+01 0.77385981881E+01 0.86745080697E+01 0.10125882249E+02 0.12225862945E+02
 0.15311380277E+02 0.19811831614E+02 0.26274648427E+02 0.35315600544E+02 0.47473263830E+02
 0.62913137903E+02 0.80973041510E+02 0.99693092359E+02 0.11574157164E+03 0.78768177834E+02
 0.79264396682E+02 0.74575348959E+02 0.65936478340E+02 0.55309412786E+02 0.44564344183E+02
 0.34966101303E+02 0.27090648707E+02 0.21001463995E+02 0.16483800649E+02 0.13221866228E+02
 0.10904096062E+02 0.91911324615E+01 0.81116123114E+01 0.73194191213E+01 0.67647117341E+01
 0.63966609550E+01 0.61711122461E+01 0.60554272505E+01 0.60310793629E+01 0.60948760216E+01
 0.62594189441E+01 0.65529358895E+01 0.70180858682E+01 0.77088351098E+01 0.86842922282E+01
 0.10189865092E+02 0.12299984127E+02 0.15311380277E+02 0.19540817637E+02 0.25324505082E+02
 0.32919092480E+02 0.42327007291E+02 0.53064069068E+02 0.63960381107E+02 0.73198896700E+02
 0.50493442532E+02 0.50946103381E+02 0.48500679432E+02 0.43729615897E+02 0.37627737579E+02
 0.31224885344E+02 0.25298809342E+02 0.20274030893E+02 0.16271591223E+02 0.13221866228E+02
 0.10965390557E+02 0.92251076918E+01 0.81287659163E+01 0.73040912842E+01 0.67072000086E+01
 0.62920596817E+01 0.60167505491E+01 0.58473205770E+01 0.57596717086E+01 0.57402657463E+01
 0.57863837878E+01 0.59063801895E+01 0.61200295846E+01 0.64587058732E+01 0.69647190271E+01
 0.76887670514E+01 0.86843985982E+01 0.10189865092E+02 0.12225862945E+02 0.15013819322E+02
 0.18729280850E+02 0.23479058519E+02 0.29209402456E+02 0.35586543975E+02 0.41926254975E+02
 0.47243207422E+02 0.33531036058E+02 0.33874283829E+02 0.32575134167E+02 0.29903147894E+02
 0.26366405810E+02 0.22527557326E+02 0.18851440450E+02 0.15629164469E+02 0.12981158440E+02
 0.10904096062E+02 0.92251076918E+01 0.81311956889E+01 0.72912635509E+01 0.66682205650E+01
 0.62207653917E+01 0.59099017353E+01 0.57027954622E+01 0.55744336224E+01 0.55078540957E+01
 0.54937590854E+01 0.55301543566E+01 0.56223842759E+01 0.57836506167E+01 0.60358141653E+01
 0.64099466418E+01 0.69457539312E+01 0.76887670514E+01 0.86842922282E+01 0.10125882249E+02
 0.11993938662E+02 0.14413729656E+02 0.17420805865E+02 0.20949861896E+02 0.24781650428E+02
 0.28516800145E+02 0.31616469226E+02 0.23356181481E+02 0.23595681495E+02 0.22881586122E+02
 0.21344728195E+02 0.19248322771E+02 0.16903352488E+02 0.14585930134E+02 0.12488014039E+02
 0.10708231806E+02 0.91911324615E+01 0.81287659163E+01 0.72912635509E+01 0.66540789566E+01
 0.61837914639E+01 0.58458207060E+01 0.56094092272E+01 0.54500846987E+01 0.53502323504E+01
 0.52985571594E+01 0.52891733226E+01 0.53208959482E+01 0.53970844467E+01 0.55261351883E+01
 0.57224549431E+01 0.60074690110E+01 0.64099466418E+01 0.69647190271E+01 0.77088351098E+01
 0.86745080697E+01 0.98789953556E+01 0.11595955992E+02 0.13541648096E+02 0.15762314285E+02
 0.18114469360E+02 0.20363229833E+02 0.22209816866E+02 0.17207443934E+02 0.17365814063E+02
 0.16951609323E+02 0.16031223828E+02 0.14745767916E+02 0.13269445169E+02 0.11767856082E+02
 0.10242532188E+02 0.90967345359E+01 0.81116123114E+01 0.73040912842E+01 0.66682205650E+01
 0.61837914639E+01 0.58243688152E+01 0.55634138742E+01 0.53780920899E+01 0.52509823581E+01
 0.51702267620E+01 0.51287659611E+01 0.51232795555E+01 0.51533408400E+01 0.52211212257E+01
 0.53317562246E+01 0.54942373470E+01 0.57224549431E+01 0.60358141653E+01 0.64587058732E+01
 0.70180858682E+01 0.77385981881E+01 0.86351984557E+01 0.97041479452E+01 0.10914402325E+02
 0.12493057175E+02 0.13981203307E+02 0.15375875526E+02 0.16505909162E+02 0.13454585335E+02
 0.13552631993E+02 0.13292570034E+02 0.12709899503E+02 0.11721379200E+02 0.10817529628E+02
 0.98571954575E+01 0.89187714560E+01 0.80610638005E+01 0.73194191213E+01 0.67072000086E+01
 0.62207653917E+01 0.58458207060E+01 0.55634138742E+01 0.53545627559E+01 0.52031647555E+01
 0.50973001412E+01 0.50292947955E+01 0.49950170729E+01 0.49928986507E+01 0.50231105265E+01
 0.50871967565E+01 0.51882821460E+01 0.53317562246E+01 0.55261351883E+01 0.57836506167E+01
 0.61200295846E+01 0.65529358895E+01 0.70986812764E+01 0.77671607965E+01 0.85555670874E+01
 0.94422236470E+01 0.10382578465E+02 0.11309589540E+02 0.12140031527E+02 0.12786611086E+02
 0.11118875383E+02 0.11167472601E+02 0.10987168574E+02 0.10597650546E+02 0.10042274364E+02
 0.93792813470E+01 0.86708718723E+01 0.79730929591E+01 0.73288074671E+01 0.67647117341E+01
 0.62920596817E+01 0.59099017353E+01 0.56094092272E+01 0.53780920899E+01 0.52031647555E+01
 0.50737494434E+01 0.49819253811E+01 0.49228335643E+01 0.48941594732E+01 0.48953589197E+01
 0.49269664268E+01 0.49902330667E+01 0.50871967565E+01 0.52211212257E+01 0.53970844467E+01
 0.56223842759E+01 0.59063801895E+01 0.62594189441E+01 0.66906141337E+01 0.72044904297E+01
 0.77968825453E+01 0.84509602587E+01 0.91346858905E+01 0.98011436111E+01 0.10392758872E+02
 0.10849388688E+02 0.97777621762E+01 0.97932827724E+01 0.96426074215E+01 0.93404976553E+01
 0.89176956012E+01 0.84150737436E+01 0.78763761389E+01 0.73414518015E+01 0.68414537551E+01
 0.63966609550E+01 0.60167505491E+01 0.57027954622E+01 0.54500846987E+01 0.52509823581E+01
 0.50973001412E+01 0.49819253811E+01 0.48996606053E+01 0.48473839652E+01 0.48237401451E+01
 0.48286178607E+01 0.48626576507E+01 0.49269664268E+01 0.50231105265E+01 0.51533408400E+01
 0.53208959482E+01 0.55301543566E+01 0.57863837878E+01 0.60948760216E+01 0.64593638909E+01
 0.68797931203E+01 0.73497611515E+01 0.78542085397E+01 0.83681726750E+01 0.88574493035E+01
 0.92817171399E+01 0.96000334393E+01 0.90355592186E+01 0.90160628864E+01 0.88678295447E+01
 0.86045336163E+01 0.82506117508E+01 0.78369960746E+01 0.73961084119E+01 0.69573254610E+01
 0.65438140637E+01 0.61711122461E+01 0.58473205770E+01 0.55744336224E+01 0.53502323504E+01
 0.51702267620E+01 0.50292947955E+01 0.49228335643E+01 0.48473839652E+01 0.48007994604E+01
 0.47821021640E+01 0.47911993529E+01 0.48286178607E+01 0.48953589197E+01 0.49928986507E+01
 0.51232795555E+01 0.52891733226E+01 0.54937590854E+01 0.57402657463E+01 0.60310793629E+01
 0.63664163333E+01 0.67427013780E+01 0.71509483077E+01 0.75755880447E+01 0.79942651500E+01
 0.83790572028E+01 0.86993058176E+01 0.89258014354E+01 0.87996856379E+01 0.87403260398E+01
 0.85680260761E+01 0.82990717635E+01 0.79573921248E+01 0.75706372917E+01 0.71661556512E+01
 0.67677176076E+01 0.63934985752E+01 0.60554272505E+01 0.57596717086E+01 0.55078540957E+01
 0.52985571594E+01 0.51287659611E+01 0.49950170729E+01 0.48941594732E+01 0.48237401451E+01
 0.47821021640E+01 0.47683206294E+01 0.47821021640E+01 0.48237401451E+01 0.48941594732E+01
 0.49950170729E+01 0.51287659611E+01 0.52985571594E+01 0.55078540957E+01 0.57596717086E+01
 0.60554272505E+01 0.63934985752E+01 0.67677176076E+01 0.71661556512E+01 0.75706372917E+01
 0.79573921248E+01 0.82990717635E+01 0.85680260761E+01 0.87403260398E+01 0.90355592186E+01
 0.89258014354E+01 0.86993058176E+01 0.83790572028E+01 0.79942651500E+01 0.75755880447E+01
 0.71509483077E+01 0.67427013780E+01 0.63664163333E+01 0.60310793629E+01 0.57402657463E+01
 0.54937590854E+01 0.52891733226E+01 0.51232795555E+01 0.49928986507E+01 0.48953589197E+01
 0.48286178607E+01 0.47911993529E+01 0.47821021640E+01 0.48007994604E+01 0.48473839652E+01
 0.49228335643E+01 0.50292947955E+01 0.51702267620E+01 0.53502323504E+01 0.55744336224E+01
 0.58473205770E+01 0.61711122461E+01 0.65438140637E+01 0.69573254610E+01 0.73961084119E+01
 0.78369960746E+01 0.82506117508E+01 0.86045336163E+01 0.88678295447E+01 0.90160628864E+01
 0.97777621762E+01 0.96000334393E+01 0.92817171399E+01 0.88574493035E+01 0.83681726750E+01
 0.78542085397E+01 0.73497611515E+01 0.68797931203E+01 0.64593638909E+01 0.60948760216E+01
 0.57863837878E+01 0.55301543566E+01 0.53208959482E+01 0.51533408400E+01 0.50231105265E+01
 0.49269664268E+01 0.48626576507E+01 0.48286178607E+01 0.48237401451E+01 0.48473839652E+01
 0.48996606053E+01 0.49819253811E+01 0.50973001412E+01 0.52509823581E+01 0.54500846987E+01
 0.57027954622E+01 0.60167505491E+01 0.63966609550E+01 0.68414537551E+01 0.73414518015E+01
 0.78763761389E+01 0.84150737436E+01 0.89176956012E+01 0.93404976553E+01 0.96426074215E+01
 0.97932827724E+01 0.11118875383E+02 0.10849388688E+02 0.10392758872E+02 0.98011436111E+01
 0.91346858905E+01 0.84509602587E+01 0.77968825453E+01 0.72044904297E+01 0.66906141337E+01
 0.62594189441E+01 0.59063801895E+01 0.56223842759E+01 0.53970844467E+01 0.52211212257E+01
 0.50871967565E+01 0.49902330667E+01 0.49269664268E+01 0.48953589197E+01 0.48941594732E+01
 0.49228335643E+01 0.49819253811E+01 0.50737494434E+01 0.52031647555E+01 0.53780920899E+01
 0.56094092272E+01 0.59099017353E+01 0.62920596817E+01 0.67647117341E+01 0.73288074671E+01
 0.79730929591E+01 0.86708718723E+01 0.93792813470E+01 0.10042274364E+02 0.10597650546E+02
 0.10987168574E+02 0.11167472601E+02 0.13454585335E+02 0.12786611086E+02 0.12140031527E+02
 0.11309589540E+02 0.10382578465E+02 0.94422236470E+01 0.85555670874E+01 0.77671607965E+01
 0.70986812764E+01 0.65529358895E+01 0.61200295846E+01 0.57836506167E+01 0.55261351883E+01
 0.53317562246E+01 0.51882821460E+01 0.50871967565E+01 0.50231105265E+01 0.49928986507E+01
 0.49950170729E+01 0.50292947955E+01 0.50973001412E+01 0.52031647555E+01 0.53545627559E+01
 0.55634138742E+01 0.58458207060E+01 0.62207653917E+01 0.67072000086E+01 0.73194191213E+01
 0.80610638005E+01 0.89187714560E+01 0.98571954575E+01 0.10817529628E+02 0.11721379200E+02
 0.12709899503E+02 0.13292570034E+02 0.13552631993E+02 0.17207443934E+02 0.16505909162E+02
 0.15375875526E+02 0.13981203307E+02 0.12493057175E+02 0.10914402325E+02 0.97041479452E+01
 0.86351984557E+01 0.77385981881E+01 0.70180858682E+01 0.64587058732E+01 0.60358141653E+01
 0.57224549431E+01 0.54942373470E+01 0.53317562246E+01 0.52211212257E+01 0.51533408400E+01
 0.51232795555E+01 0.51287659611E+01 0.51702267620E+01 0.52509823581E+01 0.53780920899E+01
 0.55634138742E+01 0.58243688152E+01 0.61837914639E+01 0.66682205650E+01 0.73040912842E+01
 0.81116123114E+01 0.90967345359E+01 0.10242532188E+02 0.11767856082E+02 0.13269445169E+02
 0.14745767916E+02 0.16031223828E+02 0.16951609323E+02 0.17365814063E+02 0.23356181481E+02
 0.22209816866E+02 0.20363229833E+02 0.18114469360E+02 0.15762314285E+02 0.13541648096E+02
 0.11595955992E+02 0.98789953556E+01 0.86745080697E+01 0.77088351098E+01 0.69647190271E+01
 0.64099466418E+01 0.60074690110E+01 0.57224549431E+01 0.55261351883E+01 0.53970844467E+01
 0.53208959482E+01 0.52891733226E+01 0.52985571594E+01 0.53502323504E+01 0.54500846987E+01
 0.56094092272E+01 0.58458207060E+01 0.61837914639E+01 0.66540789566E+01 0.72912635509E+01
 0.81287659163E+01 0.91911324615E+01 0.10708231806E+02 0.12488014039E+02 0.14585930134E+02
 0.16903352488E+02 0.19248322771E+02 0.21344728195E+02 0.22881586122E+02 0.23595681495E+02
 0.33531036058E+02 0.31616469226E+02 0.28516800145E+02 0.24781650428E+02 0.20949861896E+02
 0.17420805865E+02 0.14413729656E+02 0.11993938662E+02 0.10125882249E+02 0.86842922282E+01
 0.76887670514E+01 0.69457539312E+01 0.64099466418E+01 0.60358141653E+01 0.57836506167E+01
 0.56223842759E+01 0.55301543566E+01 0.54937590854E+01 0.55078540957E+01 0.55744336224E+01
 0.57027954622E+01 0.59099017353E+01 0.62207653917E+01 0.66682205650E+01 0.72912635509E+01
 0.81311956889E+01 0.92251076918E+01 0.10904096062E+02 0.12981158440E+02 0.15629164469E+02
 0.18851440450E+02 0.22527557326E+02 0.26366405810E+02 0.29903147894E+02 0.32575134167E+02
 0.33874283829E+02 0.50493442532E+02 0.47243207422E+02 0.41926254975E+02 0.35586543975E+02
 0.29209402456E+02 0.23479058519E+02 0.18729280850E+02 0.15013819322E+02 0.12225862945E+02
 0.10189865092E+02 0.86843985982E+01 0.76887670514E+01 0.69647190271E+01 0.64587058732E+01
 0.61200295846E+01 0.59063801895E+01 0.57863837878E+01 0.57402657463E+01 0.57596717086E+01
 0.58473205770E+01 0.60167505491E+01 0.62920596817E+01 0.67072000086E+01 0.73040912842E+01
 0.81287659163E+01 0.92251076918E+01 0.10965390557E+02 0.13221866228E+02 0.16271591223E+02
 0.20274030893E+02 0.25298809342E+02 0.31224885344E+02 0.37627737579E+02 0.43729615897E+02
 0.48500679432E+02 0.50946103381E+02 0.78768177834E+02 0.73198896700E+02 0.63960381107E+02
 0.53064069068E+02 0.42327007291E+02 0.32919092480E+02 0.25324505082E+02 0.19540817637E+02
 0.15311380277E+02 0.12299984127E+02 0.10189865092E+02 0.86842922282E+01 0.77088351098E+01
 0.70180858682E+01 0.65529358895E+01 0.62594189441E+01 0.60948760216E+01 0.60310793629E+01
 0.60554272505E+01 0.61711122461E+01 0.63966609550E+01 0.67647117341E+01 0.73194191213E+01
 0.81116123114E+01 0.91911324615E+01 0.10904096062E+02 0.13221866228E+02 0.16483800649E+02
 0.21001463995E+02 0.27090648707E+02 0.34966101303E+02 0.44564344183E+02 0.55309412786E+02
 0.65936478340E+02 0.74575348959E+02 0.79264396682E+02 0.12524796674E+03 0.11574157164E+03
 0.99693092359E+02 0.80973041510E+02 0.62913137903E+02 0.47473263830E+02 0.35315600544E+02
 0.26274648427E+02 0.19811831614E+02 0.15311380277E+02 0.12225862945E+02 0.10125882249E+02
 0.86745080697E+01 0.77385981881E+01 0.70986812764E+01 0.66906141337E+01 0.64593638909E+01
 0.63664163333E+01 0.63934985752E+01 0.65438140637E+01 0.68414537551E+01 0.73288074671E+01
 0.80610638005E+01 0.90967345359E+01 0.10708231806E+02 0.12981158440E+02 0.16271591223E+02
 0.21001463995E+02 0.27697470470E+02 0.36938221939E+02 0.49211828617E+02 0.64634407226E+02
 0.82515814199E+02 0.10090573817E+03 0.11651177223E+03 0.12551151314E+03 0.19872607093E+03
 0.18294647656E+03 0.15568756175E+03 0.12420155821E+03 0.94396268741E+02 0.69438920755E+02
 0.50178851477E+02 0.36129533144E+02 0.26274648427E+02 0.19540817637E+02 0.15013819322E+02
 0.11993938662E+02 0.98789953556E+01 0.86351984557E+01 0.77671607965E+01 0.72044904297E+01
 0.68797931203E+01 0.67427013780E+01 0.67677176076E+01 0.69573254610E+01 0.73414518015E+01
 0.79730929591E+01 0.89187714560E+01 0.10242532188E+02 0.12488014039E+02 0.15629164469E+02
 0.20274030893E+02 0.27090648707E+02 0.36938221939E+02 0.50807051877E+02 0.69625915526E+02
 0.93857725396E+02 0.12280530759E+03 0.15369895864E+03 0.18112198402E+03 0.19797773851E+03
 0.30492694570E+03 0.28063618265E+03 0.23726007080E+03 0.18729755639E+03 0.14039913442E+03
 0.10145274907E+03 0.71665601536E+02 0.50178851477E+02 0.35315600544E+02 0.25324505082E+02
 0.18729280850E+02 0.14413729656E+02 0.11595955992E+02 0.97041479452E+01 0.85555670874E+01
 0.77968825453E+01 0.73497611515E+01 0.71509483077E+01 0.71661556512E+01 0.73961084119E+01
 0.78763761389E+01 0.86708718723E+01 0.98571954575E+01 0.11767856082E+02 0.14585930134E+02
 0.18851440450E+02 0.25298809342E+02 0.34966101303E+02 0.49211828617E+02 0.69625915526E+02
 0.97725120214E+02 0.13435439732E+03 0.17874681418E+03 0.22726154811E+03 0.27206370734E+03
 0.30147487468E+03 0.42901084416E+03 0.39793505301E+03 0.33915635454E+03 0.26980903394E+03
 0.20283986471E+03 0.14575684382E+03 0.10145274907E+03 0.69438920755E+02 0.47473263830E+02
 0.32919092480E+02 0.23479058519E+02 0.17420805865E+02 0.13541648096E+02 0.10914402325E+02
 0.94422236470E+01 0.84509602587E+01 0.78542085397E+01 0.75755880447E+01 0.75706372917E+01
 0.78369960746E+01 0.84150737436E+01 0.93792813470E+01 0.10817529628E+02 0.13269445169E+02
 0.16903352488E+02 0.22527557326E+02 0.31224885344E+02 0.44564344183E+02 0.64634407226E+02
 0.93857725396E+02 0.13435439732E+03 0.18676062398E+03 0.24894088625E+03 0.31545863812E+03
 0.37731963284E+03 0.42051491831E+03 0.49922677110E+03 0.47630402916E+03 0.42626464689E+03
 0.35753139187E+03 0.27864002990E+03 0.20283986471E+03 0.14039913442E+03 0.94396268741E+02
 0.62913137903E+02 0.42327007291E+02 0.29209402456E+02 0.20949861896E+02 0.15762314285E+02
 0.12493057175E+02 0.10382578465E+02 0.91346858905E+01 0.83681726750E+01 0.79942651500E+01
 0.79573921248E+01 0.82506117508E+01 0.89176956012E+01 0.10042274364E+02 0.11721379200E+02
 0.14745767916E+02 0.19248322771E+02 0.26366405810E+02 0.37627737579E+02 0.55309412786E+02
 0.82515814199E+02 0.12280530759E+03 0.17874681418E+03 0.24894088625E+03 0.32495097311E+03
 0.39364696899E+03 0.44770211549E+03 0.48651787058E+03 0.39001057535E+03 0.39939926632E+03
 0.42245717146E+03 0.41760492436E+03 0.35753139187E+03 0.26980903394E+03 0.18729755639E+03
 0.12420155821E+03 0.80973041510E+02 0.53064069068E+02 0.35586543975E+02 0.24781650428E+02
 0.18114469360E+02 0.13981203307E+02 0.11309589540E+02 0.98011436111E+01 0.88574493035E+01
 0.83790572028E+01 0.82990717635E+01 0.86045336163E+01 0.93404976553E+01 0.10597650546E+02
 0.12709899503E+02 0.16031223828E+02 0.21344728195E+02 0.29903147894E+02 0.43729615897E+02
 0.65936478340E+02 0.10090573817E+03 0.15369895864E+03 0.22726154811E+03 0.31545863812E+03
 0.39364696899E+03 0.42360871580E+03 0.39987283902E+03 0.38203128539E+03 0.30640956325E+03
 0.21361286598E+03 0.28965630872E+03 0.42245717146E+03 0.42626464689E+03 0.33915635454E+03
 0.23726007080E+03 0.15568756175E+03 0.99693092359E+02 0.63960381107E+02 0.41926254975E+02
 0.28516800145E+02 0.20363229833E+02 0.15375875526E+02 0.12140031527E+02 0.10392758872E+02
 0.92817171399E+01 0.86993058176E+01 0.85680260761E+01 0.88678295447E+01 0.96426074215E+01
 0.10987168574E+02 0.13292570034E+02 0.16951609323E+02 0.22881586122E+02 0.32575134167E+02
 0.48500679432E+02 0.74575348959E+02 0.11651177223E+03 0.18112198402E+03 0.27206370734E+03
 0.37731963284E+03 0.44770211549E+03 0.39987283902E+03 0.24289435142E+03 0.22610073494E+03
 0.17575288394E+04 0.73149506810E+03 0.21361286598E+03 0.39939926632E+03 0.47630402916E+03
 0.39793505301E+03 0.28063618265E+03 0.18294647656E+03 0.11574157164E+03 0.73198896700E+02
 0.47243207422E+02 0.31616469226E+02 0.22209816866E+02 0.16505909162E+02 0.12786611086E+02
 0.10849388688E+02 0.96000334393E+01 0.89258014354E+01 0.87403260398E+01 0.90160628864E+01
 0.97932827724E+01 0.11167472601E+02 0.13552631993E+02 0.17365814063E+02 0.23595681495E+02
 0.33874283829E+02 0.50946103381E+02 0.79264396682E+02 0.12551151314E+03 0.19797773851E+03
 0.30147487468E+03 0.42051491831E+03 0.48651787058E+03 0.38203128539E+03 0.22610073494E+03
 0.92119063217E+03 0.18223815355E+04 0.88189088785E+03 0.24790592338E+03 0.40900024470E+03
 0.49267160458E+03 0.41547866601E+03 0.29434768787E+03 0.19217668914E+03 0.12153397776E+03
 0.76727329132E+02 0.49376981997E+02 0.32913348898E+02 0.23007599768E+02 0.17004746533E+02
 0.13332353213E+02 0.11044226157E+02 0.97250238015E+01 0.89953001091E+01 0.87634426343E+01
 0.89953001091E+01 0.97250238015E+01 0.11044226157E+02 0.13332353213E+02 0.17004746533E+02
 0.23007599768E+02 0.32913348898E+02 0.49376981997E+02 0.76727329132E+02 0.12153397776E+03
 0.19217668914E+03 0.29434768787E+03 0.41547866601E+03 0.49267160458E+03 0.40900024470E+03
 0.24790592338E+03 0.88189088785E+03 0.88189088785E+03 0.47118569140E+03 0.22100071436E+03
 0.40382943825E+03 0.48096353742E+03 0.40762570491E+03 0.29115790312E+03 0.19150014446E+03
 0.12180286927E+03 0.77212846033E+02 0.49818616805E+02 0.33248889088E+02 0.23241942395E+02
 0.17159994715E+02 0.13428615025E+02 0.11092178904E+02 0.97402744712E+01 0.89760128612E+01
 0.87048926138E+01 0.88871468131E+01 0.95499764005E+01 0.10778819172E+02 0.12685808096E+02
 0.16318127918E+02 0.21888181676E+02 0.31050103285E+02 0.46224889228E+02 0.71348389504E+02
 0.11239118178E+03 0.17705815627E+03 0.27110381534E+03 0.38546905735E+03 0.46912682573E+03
 0.41753449112E+03 0.22846752651E+03 0.38311831711E+03 0.24790592338E+03 0.22100071436E+03
 0.28442779385E+03 0.41665504100E+03 0.44200291469E+03 0.36627413985E+03 0.26315740737E+03
 0.17541064074E+03 0.11317381568E+03 0.72696232990E+02 0.47452526790E+02 0.31986903429E+02
 0.22546236033E+02 0.16755189379E+02 0.13173686077E+02 0.10914779203E+02 0.95918032721E+01
 0.88297937402E+01 0.85349224692E+01 0.86638519500E+01 0.92363790489E+01 0.10329135696E+02
 0.12049009199E+02 0.15211489391E+02 0.20085300257E+02 0.28032993163E+02 0.41067082343E+02
 0.62420908883E+02 0.96945884068E+02 0.15092102107E+03 0.22956915900E+03 0.32874501568E+03
 0.41803310763E+03 0.43072966160E+03 0.32571330204E+03 0.22846752651E+03 0.40900024470E+03
 0.40382943825E+03 0.41665504100E+03 0.42575470722E+03 0.38623136346E+03 0.30644049277E+03
 0.22025242472E+03 0.14913448636E+03 0.98169973836E+02 0.64357741020E+02 0.42830112857E+02
 0.29389122846E+02 0.21046859353E+02 0.15854936478E+02 0.12385947980E+02 0.10531344521E+02
 0.92941058733E+01 0.85700822267E+01 0.82695422551E+01 0.83480063078E+01 0.88182687887E+01
 0.97464403361E+01 0.11231174463E+02 0.13845262132E+02 0.17887743856E+02 0.24393719453E+02
 0.34910157119E+02 0.51875500481E+02 0.78894098790E+02 0.12065382557E+03 0.18158610360E+03
 0.26167062827E+03 0.34866435891E+03 0.41367364937E+03 0.43072966160E+03 0.41753449112E+03
 0.49267160458E+03 0.48096353742E+03 0.44200291469E+03 0.38623136346E+03 0.31677388408E+03
 0.24184226657E+03 0.17356931246E+03 0.11942008814E+03 0.80440123714E+02 0.54079125095E+02
 0.36908585814E+02 0.25945986706E+02 0.19000325846E+02 0.14596317633E+02 0.11638632515E+02
 0.99844607197E+01 0.88773871968E+01 0.82209017402E+01 0.79322840345E+01 0.79683302979E+01
 0.83358910340E+01 0.90898496347E+01 0.10318141885E+02 0.12385925170E+02 0.15586914788E+02
 0.20655696084E+02 0.28706875072E+02 0.41463500679E+02 0.61435425043E+02 0.91916361490E+02
 0.13640625624E+03 0.19686749891E+03 0.27071087101E+03 0.34866435891E+03 0.41803310763E+03
 0.46912682573E+03 0.41547866601E+03 0.40762570491E+03 0.36627413985E+03 0.30644049277E+03
 0.24184226657E+03 0.18149266199E+03 0.13070670178E+03 0.91479755516E+02 0.63150234881E+02
 0.43662615240E+02 0.30684031533E+02 0.22203650563E+02 0.16708150514E+02 0.13149894351E+02
 0.10748624119E+02 0.93313663943E+01 0.83818248797E+01 0.78126756254E+01 0.75503549749E+01
 0.75549884086E+01 0.78289013233E+01 0.84159725428E+01 0.93917530278E+01 0.10842179586E+02
 0.13412103836E+02 0.17208060836E+02 0.23123417287E+02 0.32321421049E+02 0.46470818413E+02
 0.67782274255E+02 0.98788850918E+02 0.14165185223E+03 0.19686749891E+03 0.26167062827E+03
 0.32874501568E+03 0.38546905735E+03 0.29434768787E+03 0.29115790312E+03 0.26315740737E+03
 0.22025242472E+03 0.17356931246E+03 0.13070670178E+03 0.95260432995E+02 0.68019907004E+02
 0.48195381432E+02 0.34335205407E+02 0.24911885267E+02 0.18614332492E+02 0.14440024522E+02
 0.11676852073E+02 0.98026181080E+01 0.86332265002E+01 0.78504461054E+01 0.73773147429E+01
 0.71506883610E+01 0.71354803363E+01 0.73309694398E+01 0.77709667033E+01 0.85179531742E+01
 0.96495940244E+01 0.11504028930E+02 0.14265413158E+02 0.18486904286E+02 0.24924914010E+02
 0.34657985561E+02 0.49107826386E+02 0.69953012433E+02 0.98788850918E+02 0.13640625624E+03
 0.18158610360E+03 0.22956915900E+03 0.27110381534E+03 0.19217668914E+03 0.19150014446E+03
 0.17541064074E+03 0.14913448636E+03 0.11942008814E+03 0.91479755516E+02 0.68019907004E+02
 0.49754122987E+02 0.36263336477E+02 0.26664858912E+02 0.20007404568E+02 0.15462835485E+02
 0.12383807570E+02 0.10184055910E+02 0.88777746493E+01 0.79451967019E+01 0.73224811508E+01
 0.69437624546E+01 0.67567232989E+01 0.67318566925E+01 0.68667061857E+01 0.71863906371E+01
 0.77405952379E+01 0.85959694369E+01 0.98224892872E+01 0.11893920128E+02 0.14852909286E+02
 0.19280252939E+02 0.25852982152E+02 0.35452897571E+02 0.49107826386E+02 0.67782274255E+02
 0.91916361490E+02 0.12065382557E+03 0.15092102107E+03 0.17705815627E+03 0.12153397776E+03
 0.12180286927E+03 0.11317381568E+03 0.98169973836E+02 0.80440123714E+02 0.63150234881E+02
 0.48195381432E+02 0.36263336477E+02 0.27259071106E+02 0.20720859097E+02 0.16093525455E+02
 0.12868478203E+02 0.10636732792E+02 0.90542913087E+01 0.80320273800E+01 0.73095059144E+01
 0.68286401961E+01 0.65348796802E+01 0.63864168589E+01 0.63595136457E+01 0.64510049410E+01
 0.66788719877E+01 0.70810570037E+01 0.77118700854E+01 0.86348066956E+01 0.99108826784E+01
 0.12121123294E+02 0.15144254938E+02 0.19545387377E+02 0.25852982152E+02 0.34657985561E+02
 0.46470818413E+02 0.61435425043E+02 0.78894098790E+02 0.96945884068E+02 0.11239118178E+03
 0.76727329132E+02 0.77212846033E+02 0.72696232990E+02 0.64357741020E+02 0.54079125095E+02
 0.43662615240E+02 0.34335205407E+02 0.26664858912E+02 0.20720859097E+02 0.16301927219E+02