=========================================
SLURM_JOB_ID = 31798340
SLURM_JOB_NODELIST = lnode42
SLURM_GPUS = 
SLURM_CPUS_ON_NODE = 8
SLURM_JOB_PARTITION = lenovo
SLURM_TASK_PID = 2118551
CUDA_VISIBLE_DEVICES = 
==========================================
 running on    8 total cores
 distrk:  each k-point on    8 cores,    1 groups
 distr:  one band on    4 cores,    2 groups
 using from now: INCAR     
 vasp.5.4.4.18Apr17-6-g9f103f2a35 (build Apr 28 2018 00:24:27) complex          
  
 POSCAR found type information on POSCAR  Fe
 POSCAR found :  1 types and       4 ions
 scaLAPACK will be used
 LDA part: xc-table for Pade appr. of Perdew
 POSCAR, INCAR and KPOINTS ok, starting setup
 FFT: planning ...
 WAVECAR not read
 entering main loop
       N       E                     dE             d eps       ncg     rms          rms(c)
DAV:   1     0.232433422053E+03    0.23243E+03   -0.14341E+04  5136   0.209E+03
DAV:   2    -0.160372992077E+02   -0.24847E+03   -0.24005E+03  5120   0.407E+02
DAV:   3    -0.362727258121E+02   -0.20235E+02   -0.18206E+02  7932   0.136E+02
DAV:   4    -0.372888816926E+02   -0.10162E+01   -0.94056E+00  7516   0.332E+01
DAV:   5    -0.373259254285E+02   -0.37044E-01   -0.34243E-01  7492   0.452E+00    0.225E+01
RMM:   6    -0.320180653729E+02    0.53079E+01   -0.49339E+01  5120   0.103E+02    0.105E+01
RMM:   7    -0.321107151271E+02   -0.92650E-01   -0.36786E+00  5500   0.234E+01    0.581E+00
RMM:   8    -0.321158509136E+02   -0.51358E-02   -0.44110E-01  6224   0.678E+00    0.179E+00
RMM:   9    -0.321016459259E+02    0.14205E-01   -0.11462E-01  5605   0.466E+00    0.683E-01
RMM:  10    -0.321009344073E+02    0.71152E-03   -0.51270E-02  6639   0.192E+00    0.191E-01
RMM:  11    -0.321022300699E+02   -0.12957E-02   -0.10138E-02  7537   0.456E-01    0.100E-01
RMM:  12    -0.321023205461E+02   -0.90476E-04   -0.13270E-03  5933   0.435E-01    0.463E-02
RMM:  13    -0.321023563227E+02   -0.35777E-04   -0.46402E-04  7673   0.958E-02    0.156E-02
RMM:  14    -0.321023638606E+02   -0.75379E-05   -0.47946E-05  6403   0.582E-02    0.125E-02
RMM:  15    -0.321023601349E+02    0.37257E-05   -0.15745E-05  6134   0.276E-02    0.521E-03
RMM:  16    -0.321023615997E+02   -0.14648E-05   -0.19397E-06  3781   0.104E-02    0.252E-03
RMM:  17    -0.321023597717E+02    0.18280E-05   -0.12076E-06  3475   0.118E-02    0.146E-03
RMM:  18    -0.321023599366E+02   -0.16491E-06   -0.68722E-07  3332   0.992E-03
   1 F= -.32102360E+02 E0= -.32102360E+02  d E =0.000000E+00  mag=     0.0000
