       N       E                     dE             d eps       ncg     rms          rms(c)
DAV:   1     0.466278509046E+04    0.46628E+04   -0.16057E+05 11544   0.222E+03
DAV:   2     0.535508048265E+03   -0.41273E+04   -0.37661E+04 11424   0.615E+02
DAV:   3    -0.239993429061E+03   -0.77550E+03   -0.68084E+03 11868   0.256E+02
DAV:   4    -0.293850842720E+03   -0.53857E+02   -0.53203E+02 12972   0.661E+01
DAV:   5    -0.294462875656E+03   -0.61203E+00   -0.61033E+00 12732   0.794E+00    0.809E+01
DAV:   6    -0.235300075781E+03    0.59163E+02   -0.25320E+02 14820   0.810E+01    0.913E+01
DAV:   7    -0.211695472587E+03    0.23605E+02   -0.11379E+02 12276   0.635E+01    0.437E+01
DAV:   8    -0.218322204961E+03   -0.66267E+01   -0.21337E+01 12132   0.171E+01    0.264E+01
DAV:   9    -0.222534402362E+03   -0.42122E+01   -0.82597E+00 12660   0.171E+01    0.273E+01
DAV:  10    -0.222149039114E+03    0.38536E+00   -0.24745E+00 12588   0.698E+00    0.186E+01
DAV:  11    -0.221578032673E+03    0.57101E+00   -0.23730E-01 14268   0.285E+00    0.121E+01
DAV:  12    -0.221378275421E+03    0.19976E+00   -0.19505E-01 15252   0.238E+00    0.844E+00
DAV:  13    -0.221374605697E+03    0.36697E-02   -0.11203E-01 13908   0.227E+00    0.464E+00
DAV:  14    -0.221420453240E+03   -0.45848E-01   -0.15686E-01 15072   0.201E+00    0.177E+00
DAV:  15    -0.221439160867E+03   -0.18708E-01   -0.64312E-02 12456   0.680E-01    0.142E+00
DAV:  16    -0.221433985144E+03    0.51757E-02   -0.94553E-03 14328   0.721E-01    0.356E-01
DAV:  17    -0.221434669542E+03   -0.68440E-03   -0.46533E-03 12384   0.176E-01    0.185E-01
DAV:  18    -0.221434909975E+03   -0.24043E-03   -0.21920E-04 14100   0.771E-02    0.908E-02
DAV:  19    -0.221434968073E+03   -0.58099E-04   -0.95133E-05 13752   0.447E-02    0.180E-02
DAV:  20    -0.221434979296E+03   -0.11222E-04   -0.26467E-05 12504   0.158E-02    0.934E-03
DAV:  21    -0.221434978538E+03    0.75758E-06   -0.21337E-06 12576   0.769E-03    0.114E-02
DAV:  22    -0.221434979697E+03   -0.11591E-05   -0.10670E-06 10764   0.519E-03    0.558E-03
DAV:  23    -0.221434979297E+03    0.40019E-06   -0.29968E-07  9732   0.321E-03    0.874E-04
DAV:  24    -0.221434978615E+03    0.68171E-06   -0.96610E-08  6696   0.833E-04    0.413E-04
DAV:  25    -0.221434978461E+03    0.15421E-06   -0.55139E-09  6216   0.264E-04    0.201E-04
DAV:  26    -0.221434978500E+03   -0.38563E-07   -0.94825E-10  6216   0.105E-04
   1 F= -.22143498E+03 E0= -.22143498E+03  d E =0.000000E+00  mag=    42.3291
