 vasp.5.4.4.18Apr17-6-g9f103f2a35 (build Apr 28 2018 00:24:27) complex          
  
 executed on             LinuxIFC date 2021.09.06  03:43:20
 running on   24 total cores
 distrk:  each k-point on   24 cores,    1 groups
 distr:  one band on NCORES_PER_BAND=   4 cores,    6 groups


--------------------------------------------------------------------------------------------------------


 INCAR:
 POTCAR:    PAW_PBE Fe_pv 02Aug2007               
 POTCAR:    PAW_PBE O 08Apr2002                   
 POTCAR:    PAW_PBE Fe_pv 02Aug2007               
   VRHFIN =Fe:  3pd7s1                                                          
   LEXCH  = PE                                                                  
   EATOM  =  2457.4239 eV,  180.6156 Ry                                         
                                                                                
   TITEL  = PAW_PBE Fe_pv 02Aug2007                                             
   LULTRA =        F    use ultrasoft PP ?                                      
   IUNSCR =        1    unscreen: 0-lin 1-nonlin 2-no                           
   RPACOR =    1.750    partial core radius                                     
   POMASS =   55.847; ZVAL   =   14.000    mass and valenz                      
   RCORE  =    2.200    outmost cutoff radius                                   
   RWIGS  =    2.200; RWIGS  =    1.164    wigner-seitz radius (au A)           
   ENMAX  =  293.238; ENMIN  =  219.928 eV                                      
   ICORE  =        3    local potential                                         
   LCOR   =        T    correct aug charges                                     
   LPAW   =        T    paw PP                                                  
   EAUG   =  578.342                                                            
   DEXC   =    0.000                                                            
   RMAX   =    2.249    core radius for proj-oper                               
   RAUG   =    1.300    factor for augmentation sphere                          
   RDEP   =    2.296    radius for radial grids                                 
   RDEPT  =    1.766    core radius for aug-charge                              
                                                                                
   Atomic configuration                                                         
    8 entries                                                                   
     n  l   j            E        occ.                                          
     1  0  0.50     -6993.8440   2.0000                                         
     2  0  0.50      -814.6047   2.0000                                         
     2  1  1.50      -693.3689   6.0000                                         
     3  0  0.50       -89.4732   2.0000                                         
     3  1  1.50       -55.6373   6.0000                                         
     3  2  2.50        -3.8151   7.0000                                         
     4  0  0.50        -4.2551   1.0000                                         
     4  3  2.50        -1.3606   0.0000                                         
   Description                                                                  
     l       E           TYP  RCUT    TYP  RCUT                                 
     1    -55.6372668     23  2.000                                             
     1     -5.4423304     23  2.000                                             
     2     -3.8151096     23  2.200                                             
     2     -5.1756922     23  2.200                                             
     0     -4.2550951     23  2.200                                             
     0     27.2116520     23  2.200                                             
     3     -1.3605826     23  2.200                                             
  local pseudopotential read in
  partial core-charges read in
  partial kinetic energy density read in
  atomic valenz-charges read in
  non local Contribution for L=           1  read in
    real space projection operators read in
  non local Contribution for L=           1  read in
    real space projection operators read in
  non local Contribution for L=           2  read in
    real space projection operators read in
  non local Contribution for L=           2  read in
    real space projection operators read in
  non local Contribution for L=           0  read in
    real space projection operators read in
  non local Contribution for L=           0  read in
    real space projection operators read in
    PAW grid and wavefunctions read in
 
   number of l-projection  operators is LMAX  =           6
   number of lm-projection operators is LMMAX =          18
 
 POTCAR:    PAW_PBE O 08Apr2002                   
   VRHFIN =O: s2p4                                                              
   LEXCH  = PE                                                                  
   EATOM  =   432.3788 eV,   31.7789 Ry                                         
                                                                                
   TITEL  = PAW_PBE O 08Apr2002                                                 
   LULTRA =        F    use ultrasoft PP ?                                      
   IUNSCR =        1    unscreen: 0-lin 1-nonlin 2-no                           
   RPACOR =    1.200    partial core radius                                     
   POMASS =   16.000; ZVAL   =    6.000    mass and valenz                      
   RCORE  =    1.520    outmost cutoff radius                                   
   RWIGS  =    1.550; RWIGS  =    0.820    wigner-seitz radius (au A)           
   ENMAX  =  400.000; ENMIN  =  300.000 eV                                      
   ICORE  =        2    local potential                                         
   LCOR   =        T    correct aug charges                                     
   LPAW   =        T    paw PP                                                  
   EAUG   =  605.392                                                            
   DEXC   =    0.000                                                            
   RMAX   =    1.553    core radius for proj-oper                               
   RAUG   =    1.300    factor for augmentation sphere                          
   RDEP   =    1.550    radius for radial grids                                 
   RDEPT  =    1.329    core radius for aug-charge                              
                                                                                
   Atomic configuration                                                         
    4 entries                                                                   
     n  l   j            E        occ.                                          
     1  0  0.50      -514.6923   2.0000                                         
     2  0  0.50       -23.9615   2.0000                                         
     2  1  0.50        -9.0305   4.0000                                         
     3  2  1.50        -9.5241   0.0000                                         
   Description                                                                  
     l       E           TYP  RCUT    TYP  RCUT                                 
     0    -23.9615318     23  1.200                                             
     0     -9.5240782     23  1.200                                             
     1     -9.0304911     23  1.520                                             
     1      8.1634956     23  1.520                                             
     2     -9.5240782      7  1.500                                             
  local pseudopotential read in
  partial core-charges read in
  partial kinetic energy density read in
  kinetic energy density of atom read in
  atomic valenz-charges read in
  non local Contribution for L=           0  read in
    real space projection operators read in
  non local Contribution for L=           0  read in
    real space projection operators read in
  non local Contribution for L=           1  read in
    real space projection operators read in
  non local Contribution for L=           1  read in
    real space projection operators read in
    PAW grid and wavefunctions read in
 
   number of l-projection  operators is LMAX  =           4
   number of lm-projection operators is LMMAX =           8
 
 Optimization of the real space projectors (new method)

 maximal supplied QI-value         = 17.01
 optimisation between [QCUT,QGAM] = [ 13.27, 26.70] = [ 49.28,199.66] Ry 
 Optimized for a Real-space Cutoff    1.38 Angstroem

   l    n(q)    QCUT    max X(q) W(low)/X(q) W(high)/X(q)  e(spline) 
   1     11    13.266     4.267    0.12E-03    0.75E-04    0.28E-06
   1     11    13.266     5.750    0.19E-03    0.11E-03    0.42E-06
   2     10    13.266    53.656    0.42E-04    0.31E-04    0.20E-06
   2     10    13.266    49.521    0.43E-04    0.32E-04    0.21E-06
   0     11    13.266    31.246    0.45E-04    0.41E-05    0.20E-06
   0     11    13.266    12.201    0.31E-04    0.36E-05    0.16E-06
 Optimization of the real space projectors (new method)

 maximal supplied QI-value         = 24.76
 optimisation between [QCUT,QGAM] = [ 13.12, 26.49] = [ 48.21,196.48] Ry 
 Optimized for a Real-space Cutoff    1.12 Angstroem

   l    n(q)    QCUT    max X(q) W(low)/X(q) W(high)/X(q)  e(spline) 
   0      9    13.120    20.381    0.21E-03    0.13E-03    0.22E-06
   0      9    13.120    15.268    0.22E-03    0.14E-03    0.23E-06
   1      8    13.120     5.964    0.12E-03    0.26E-03    0.20E-06
   1      8    13.120     5.382    0.98E-04    0.22E-03    0.17E-06
  PAW_PBE Fe_pv 02Aug2007               :
 energy of atom  1       EATOM=-2457.4239
 kinetic energy error for atom=    0.0031 (will be added to EATOM!!)
  PAW_PBE O 08Apr2002                   :
 energy of atom  2       EATOM= -432.3788
 kinetic energy error for atom=    0.0105 (will be added to EATOM!!)
 
 
 POSCAR: Fe12 O18                                
  positions in direct lattice
  No initial velocities read in
 exchange correlation table for  LEXCH =        8
   RHO(1)=    0.500       N(1)  =     2000
   RHO(2)=  100.500       N(2)  =     4000
 


--------------------------------------------------------------------------------------------------------


 ion  position               nearest neighbor table
   1  0.000  0.000  0.355-  17 1.94  23 1.94  28 1.94  25 2.12  19 2.12  13 2.12
   2  0.000  0.000  0.645-  16 1.94  22 1.94  29 1.94  26 2.12  20 2.12  14 2.12
   3  0.333  0.667  0.022-  30 1.94  24 1.94  18 1.94  27 2.12  21 2.12  15 2.12
   4  0.667  0.333  0.689-  14 1.94  20 1.94  26 1.94  22 2.12  29 2.12  16 2.12
   5  0.333  0.667  0.311-  13 1.94  19 1.94  25 1.94  23 2.12  28 2.12  17 2.12
   6  0.667  0.333  0.978-  27 1.94  21 1.94  15 1.94  30 2.12  24 2.12  18 2.12
   7  0.000  0.000  0.145-  24 1.94  18 1.94  30 1.94  25 2.12  19 2.12  13 2.12
   8  0.000  0.000  0.855-  21 1.94  15 1.94  27 1.94  26 2.12  20 2.12  14 2.12
   9  0.333  0.667  0.811-  20 1.94  14 1.94  26 1.94  27 2.12  21 2.12  15 2.12
  10  0.333  0.667  0.522-  29 1.94  16 1.94  22 1.94  23 2.12  28 2.12  17 2.12
  11  0.667  0.333  0.478-  28 1.94  17 1.94  23 1.94  22 2.12  29 2.12  16 2.12
  12  0.667  0.333  0.189-  19 1.94  13 1.94  25 1.94  30 2.12  24 2.12  18 2.12
  13  0.306  0.000  0.250-   5 1.94  12 1.94   7 2.12   1 2.12
  14  0.694  0.000  0.750-   4 1.94   9 1.94   8 2.12   2 2.12
  15  0.640  0.667  0.917-   6 1.94   8 1.94   9 2.12   3 2.12
  16  0.973  0.333  0.583-  10 1.94   2 1.94   4 2.12  11 2.12
  17  0.027  0.667  0.417-  11 1.94   1 1.94   5 2.12  10 2.12
  18  0.360  0.333  0.083-   3 1.94   7 1.94  12 2.12   6 2.12
  19  0.000  0.306  0.250-  12 1.94   5 1.94   7 2.12   1 2.12
  20  0.000  0.694  0.750-   9 1.94   4 1.94   8 2.12   2 2.12
  21  0.333  0.973  0.917-   6 1.94   8 1.94   9 2.12   3 2.12
  22  0.667  0.640  0.583-  10 1.94   2 1.94   4 2.12  11 2.12
  23  0.333  0.360  0.417-  11 1.94   1 1.94   5 2.12  10 2.12
  24  0.667  0.027  0.083-   3 1.94   7 1.94  12 2.12   6 2.12
  25  0.694  0.694  0.250-  12 1.94   5 1.94   7 2.12   1 2.12
  26  0.306  0.306  0.750-   9 1.94   4 1.94   8 2.12   2 2.12
  27  0.027  0.360  0.917-   6 1.94   8 1.94   9 2.12   3 2.12
  28  0.640  0.973  0.417-  11 1.94   1 1.94   5 2.12  10 2.12
  29  0.360  0.027  0.583-  10 1.94   2 1.94   4 2.12  11 2.12
  30  0.973  0.640  0.083-   3 1.94   7 1.94  12 2.12   6 2.12
 
  LATTYP: Found a hexagonal cell.
 ALAT       =     5.0350995578
 C/A-ratio  =     2.7324385232
  
  Lattice vectors:
  
 A1 = (   5.0351000000,   0.0000000000,   0.0000000000)
 A2 = (  -2.5175500000,   4.3605240000,   0.0000000000)
 A3 = (   0.0000000000,   0.0000000000,  13.7581000000)


Analysis of symmetry for initial positions (statically):
=====================================================================
 Subroutine PRICEL returns following result:
 
  LATTYP: Found a trigonal (rhomboedric) cell.
 ALAT       =     5.4297801492
 COS(alpha) =     0.5700456062
  
  Lattice vectors:
  
 A1 = (  -2.5175449649,  -1.4535109070,  -4.5860425054)
 A2 = (  -0.0000025175,   2.9070174535,  -4.5860287473)
 A3 = (   2.5175474825,  -1.4535065465,  -4.5860287473)
 
   3 primitive cells build up your supercell.
 

 Routine SETGRP: Setting up the symmetry group for a 
 hexagonal supercell.


 Subroutine GETGRP returns: Found 12 space group operations
 (whereof  6 operations were pure point group operations)
 out of a pool of 24 trial point group operations.


The static configuration has the point symmetry S_6 .
 The point group associated with its full space group is D_3d.


Analysis of symmetry for dynamics (positions and initial velocities):
=====================================================================
 Subroutine PRICEL returns following result:
 
  LATTYP: Found a trigonal (rhomboedric) cell.
 ALAT       =     5.4297801492
 COS(alpha) =     0.5700456062
  
  Lattice vectors:
  
 A1 = (  -2.5175449649,  -1.4535109070,  -4.5860425054)
 A2 = (  -0.0000025175,   2.9070174535,  -4.5860287473)
 A3 = (   2.5175474825,  -1.4535065465,  -4.5860287473)
 
   3 primitive cells build up your supercell.
 

 Routine SETGRP: Setting up the symmetry group for a 
 hexagonal supercell.


 Subroutine GETGRP returns: Found 12 space group operations
 (whereof  6 operations were pure point group operations)
 out of a pool of 24 trial point group operations.


The dynamic configuration has the point symmetry S_6 .
 The point group associated with its full space group is D_3d.


Analysis of structural, dynamic, and magnetic symmetry:
=====================================================================
 Subroutine PRICEL returns following result:
 
  LATTYP: Found a trigonal (rhomboedric) cell.
 ALAT       =     5.4297801492
 COS(alpha) =     0.5700456062
  
  Lattice vectors:
  
 A1 = (  -2.5175449649,  -1.4535109070,  -4.5860425054)
 A2 = (  -0.0000025175,   2.9070174535,  -4.5860287473)
 A3 = (   2.5175474825,  -1.4535065465,  -4.5860287473)
 
   3 primitive cells build up your supercell.
 

 Routine SETGRP: Setting up the symmetry group for a 
 hexagonal supercell.


 Subroutine GETGRP returns: Found 12 space group operations
 (whereof  6 operations were pure point group operations)
 out of a pool of 24 trial point group operations.


The magnetic configuration has the point symmetry S_6 .
 The point group associated with its full space group is D_3d.


 Subroutine INISYM returns: Found 12 space group operations
 (whereof  6 operations are pure point group operations),
 and found     3 'primitive' translations

 
 
 KPOINTS: pymatgen with grid density = 2464 / numb

Automatic generation of k-mesh.
Space group operators:
 irot       det(A)        alpha          n_x          n_y          n_z        tau_x        tau_y        tau_z
    1     1.000000     0.000000     1.000000     0.000000     0.000000     0.000000     0.000000     0.000000
    2    -1.000000     0.000000     1.000000     0.000000     0.000000     0.000000     0.000000     0.000000
    3     1.000000   120.000000     0.000000     0.000000    -1.000000     0.000000     0.000000     0.000000
    4    -1.000000   120.000000     0.000000     0.000000    -1.000000     0.000000     0.000000     0.000000
    5     1.000000   120.000000     0.000000     0.000000     1.000000     0.000000     0.000000     0.000000
    6    -1.000000   120.000000     0.000000     0.000000     1.000000     0.000000     0.000000     0.000000
    7     1.000000   180.000000     1.000000     0.000000     0.000000     0.000001    -0.000000    -0.500000
    8    -1.000000   180.000000     1.000000     0.000000     0.000000     0.000001    -0.000000    -0.500000
    9     1.000000   180.000000     0.500000    -0.866025     0.000000     0.000000     0.000000    -0.500000
   10    -1.000000   180.000000     0.500000    -0.866025     0.000000     0.000000     0.000000    -0.500000
   11     1.000000   180.000000    -0.500000    -0.866025     0.000000     0.000000     0.000000    -0.500000
   12    -1.000000   180.000000    -0.500000    -0.866025     0.000000     0.000000     0.000000    -0.500000
 
 Subroutine IBZKPT returns following result:
 ===========================================
 
 Found     14 irreducible k-points:
 
 Following reciprocal coordinates:
            Coordinates               Weight
  0.000000  0.000000  0.000000      1.000000
  0.166667  0.000000  0.000000      6.000000
  0.333333  0.000000  0.000000      6.000000
  0.500000  0.000000  0.000000      3.000000
  0.166667  0.166667  0.000000      6.000000
  0.333333  0.166667  0.000000     12.000000
  0.333333  0.333333  0.000000      2.000000
  0.000000  0.000000  0.500000      1.000000
  0.166667  0.000000  0.500000      6.000000
  0.333333  0.000000  0.500000      6.000000
  0.500000  0.000000  0.500000      3.000000
  0.166667  0.166667  0.500000      6.000000
  0.333333  0.166667  0.500000     12.000000
  0.333333  0.333333  0.500000      2.000000
 
 Following cartesian coordinates:
            Coordinates               Weight
  0.000000  0.000000  0.000000      1.000000
  0.033101  0.019111  0.000000      6.000000
  0.066202  0.038222  0.000000      6.000000
  0.099303  0.057333  0.000000      3.000000
  0.033101  0.057333  0.000000      6.000000
  0.066202  0.076443  0.000000     12.000000
  0.066202  0.114665  0.000000      2.000000
  0.000000  0.000000  0.036342      1.000000
  0.033101  0.019111  0.036342      6.000000
  0.066202  0.038222  0.036342      6.000000
  0.099303  0.057333  0.036342      3.000000
  0.033101  0.057333  0.036342      6.000000
  0.066202  0.076443  0.036342     12.000000
  0.066202  0.114665  0.036342      2.000000
 
 TETIRR: Found     71 inequivalent tetrahedra from      432


--------------------------------------------------------------------------------------------------------




 Dimension of arrays:
   k-points           NKPTS =     14   k-points in BZ     NKDIM =     14   number of bands    NBANDS=    204
   number of dos      NEDOS =    301   number of ions     NIONS =     30
   non local maximal  LDIM  =      6   non local SUM 2l+1 LMDIM =     18
   total plane-waves  NPLWV = 276480
   max r-space proj   IRMAX =  10159   max aug-charges    IRDMAX=  27304
   dimension x,y,z NGX =    48 NGY =   48 NGZ =  120
   dimension x,y,z NGXF=    96 NGYF=   96 NGZF=  240
   support grid    NGXF=    96 NGYF=   96 NGZF=  240
   ions per type =              12  18
   NGX,Y,Z   is equivalent  to a cutoff of  15.85, 15.85, 14.50 a.u.
   NGXF,Y,Z  is equivalent  to a cutoff of  31.70, 31.70, 29.00 a.u.

 SYSTEM =  unknown system                          
 POSCAR =  Fe12 O18                                

 Startparameter for this run:
   NWRITE =      2    write-flag & timer
   PREC   = accura    normal or accurate (medium, high low for compatibility)
   ISTART =      0    job   : 0-new  1-cont  2-samecut
   ICHARG =      2    charge: 1-file 2-atom 10-const
   ISPIN  =      2    spin polarized calculation?
   LNONCOLLINEAR =      F non collinear calculations
   LSORBIT =      F    spin-orbit coupling
   INIWAV =      1    electr: 0-lowe 1-rand  2-diag
   LASPH  =      F    aspherical Exc in radial PAW
   METAGGA=      F    non-selfconsistent MetaGGA calc.

 Electronic Relaxation 1
   ENCUT  =  680.0 eV  49.98 Ry    7.07 a.u.  10.71 10.71 29.25*2*pi/ulx,y,z
   ENINI  =  680.0     initial cutoff
   ENAUG  =  605.4 eV  augmentation charge cutoff
   NELM   =    100;   NELMIN=  2; NELMDL= -5     # of ELM steps 
   EDIFF  = 0.1E-06   stopping-criterion for ELM
   LREAL  =      T    real-space projection
   NLSPLINE    = F    spline interpolate recip. space projectors
   LCOMPAT=      F    compatible to vasp.4.4
   GGA_COMPAT  = T    GGA compatible to vasp.4.4-vasp.4.6
   LMAXPAW     = -100 max onsite density
   LMAXMIX     =    2 max onsite mixed and CHGCAR
   VOSKOWN=      0    Vosko Wilk Nusair interpolation
   ROPT   =   -0.00025  -0.00025
 Ionic relaxation
   EDIFFG = 0.1E-05   stopping-criterion for IOM
   NSW    =      0    number of steps for IOM
   NBLOCK =      1;   KBLOCK =      1    inner block; outer block 
   IBRION =     -1    ionic relax: 0-MD 1-quasi-New 2-CG
   NFREE  =      0    steps in history (QN), initial steepest desc. (CG)
   ISIF   =      3    stress and relaxation
   IWAVPR =     10    prediction:  0-non 1-charg 2-wave 3-comb
   ISYM   =      2    0-nonsym 1-usesym 2-fastsym
   LCORR  =      T    Harris-Foulkes like correction to forces

   POTIM  = 0.5000    time-step for ionic-motion
   TEIN   =    0.0    initial temperature
   TEBEG  =    0.0;   TEEND  =   0.0 temperature during run
   SMASS  =  -3.00    Nose mass-parameter (am)
   estimated Nose-frequenzy (Omega)   =  0.10E-29 period in steps =****** mass=  -0.579E-27a.u.
   SCALEE = 1.0000    scale energy and forces
   NPACO  =    256;   APACO  = 16.0  distance and # of slots for P.C.
   PSTRESS=    0.0 pullay stress

  Mass of Ions in am
   POMASS =  55.85 16.00
  Ionic Valenz
   ZVAL   =  14.00  6.00
  Atomic Wigner-Seitz radii
   RWIGS  =  -1.00 -1.00
  virtual crystal weights 
   VCA    =   1.00  1.00
   NELECT =     276.0000    total number of electrons
   NUPDOWN=      -1.0000    fix difference up-down

 DOS related values:
   EMIN   =  10.00;   EMAX   =-10.00  energy-range for DOS
   EFERMI =   0.00
   ISMEAR =    -5;   SIGMA  =   0.05  broadening in eV -4-tet -1-fermi 0-gaus

 Electronic relaxation 2 (details)
   IALGO  =     38    algorithm
   LDIAG  =      T    sub-space diagonalisation (order eigenvalues)
   LSUBROT=      F    optimize rotation matrix (better conditioning)
   TURBO    =      0    0=normal 1=particle mesh
   IRESTART =      0    0=no restart 2=restart with 2 vectors
   NREBOOT  =      0    no. of reboots
   NMIN     =      0    reboot dimension
   EREF     =   0.00    reference energy to select bands
   IMIX   =      4    mixing-type and parameters
     AMIX     =   0.40;   BMIX     =  1.00
     AMIX_MAG =   1.60;   BMIX_MAG =  1.00
     AMIN     =   0.10
     WC   =   100.;   INIMIX=   1;  MIXPRE=   1;  MAXMIX= -45

 Intra band minimization:
   WEIMIN = 0.0000     energy-eigenvalue tresh-hold
   EBREAK =  0.12E-09  absolut break condition
   DEPER  =   0.30     relativ break condition  

   TIME   =   0.40     timestep for ELM

  volume/ion in A,a.u.               =      10.07        67.95
  Fermi-wavevector in a.u.,A,eV,Ry     =   1.588581  3.001983 34.335534  2.523591
  Thomas-Fermi vector in A             =   2.687563
 
 Write flags
   LWAVE        =      F    write WAVECAR
   LDOWNSAMPLE  =      F    k-point downsampling of WAVECAR
   LCHARG       =      F    write CHGCAR
   LVTOT        =      F    write LOCPOT, total local potential
   LVHAR        =      F    write LOCPOT, Hartree potential only
   LELF         =      F    write electronic localiz. function (ELF)
   LORBIT       =     11    0 simple, 1 ext, 2 COOP (PROOUT), +10 PAW based schemes


 Dipole corrections
   LMONO  =      F    monopole corrections only (constant potential shift)
   LDIPOL =      F    correct potential (dipole corrections)
   IDIPOL =      0    1-x, 2-y, 3-z, 4-all directions 
   EPSILON=  1.0000000 bulk dielectric constant

 Exchange correlation treatment:
   GGA     =    --    GGA type
   LEXCH   =     8    internal setting for exchange type
   VOSKOWN=      0    Vosko Wilk Nusair interpolation
   LHFCALC =     F    Hartree Fock is set to
   LHFONE  =     F    Hartree Fock one center treatment
   AEXX    =    0.0000 exact exchange contribution

 Linear response parameters
   LEPSILON=     F    determine dielectric tensor
   LRPA    =     F    only Hartree local field effects (RPA)
   LNABLA  =     F    use nabla operator in PAW spheres
   LVEL    =     F    velocity operator in full k-point grid
   LINTERFAST=   F  fast interpolation
   KINTER  =     0    interpolate to denser k-point grid
   CSHIFT  =0.1000    complex shift for real part using Kramers Kronig
   OMEGAMAX=  -1.0    maximum frequency
   DEG_THRESHOLD= 0.2000000E-02 threshold for treating states as degnerate
   RTIME   =   -0.100 relaxation time in fs
  (WPLASMAI=    0.000 imaginary part of plasma frequency in eV, 0.658/RTIME)
   DFIELD  = 0.0000000 0.0000000 0.0000000 field for delta impulse in time
 
 Orbital magnetization related:
   ORBITALMAG=     F  switch on orbital magnetization
   LCHIMAG   =     F  perturbation theory with respect to B field
   DQ        =  0.001000  dq finite difference perturbation B field
   LLRAUG    =     F  two centre corrections for induced B field



--------------------------------------------------------------------------------------------------------


 Static calculation
 charge density and potential will be updated during run
 spin polarized calculation
 Variant of blocked Davidson
 Davidson routine will perform the subspace rotation
 perform sub-space diagonalisation
    after iterative eigenvector-optimisation
 modified Broyden-mixing scheme, WC =      100.0
 initial mixing is a Kerker type mixing with AMIX =  0.4000 and BMIX =      1.0000
 Hartree-type preconditioning will be used
 using additional bands           66
 real space projection scheme for non local part
 use partial core corrections
 calculate Harris-corrections to forces 
   (improved forces if not selfconsistent)
 use gradient corrections 
 use of overlap-Matrix (Vanderbilt PP)
 Fermi weights with tetrahedron method with Bloechl corrections


--------------------------------------------------------------------------------------------------------


  energy-cutoff  :      680.00
  volume of cell :      302.07
      direct lattice vectors                 reciprocal lattice vectors
     5.035100000  0.000000000  0.000000000     0.198605787  0.114665118  0.000000000
    -2.517550000  4.360524000  0.000000000     0.000000000  0.229330236  0.000000000
     0.000000000  0.000000000 13.758100000     0.000000000  0.000000000  0.072684455

  length of vectors
     5.035100000  5.035099558 13.758100000     0.229330216  0.229330236  0.072684455


 
 k-points in units of 2pi/SCALE and weight: pymatgen with grid density = 2464 / numb
   0.00000000  0.00000000  0.00000000       0.014
   0.03310096  0.01911085  0.00000000       0.083
   0.06620193  0.03822171  0.00000000       0.083
   0.09930289  0.05733256  0.00000000       0.042
   0.03310096  0.05733256  0.00000000       0.083
   0.06620193  0.07644341  0.00000000       0.167
   0.06620193  0.11466512  0.00000000       0.028
   0.00000000  0.00000000  0.03634223       0.014
   0.03310096  0.01911085  0.03634223       0.083
   0.06620193  0.03822171  0.03634223       0.083
   0.09930289  0.05733256  0.03634223       0.042
   0.03310096  0.05733256  0.03634223       0.083
   0.06620193  0.07644341  0.03634223       0.167
   0.06620193  0.11466512  0.03634223       0.028
 
 k-points in reciprocal lattice and weights: pymatgen with grid density = 2464 / numb
   0.00000000  0.00000000  0.00000000       0.014
   0.16666667  0.00000000  0.00000000       0.083
   0.33333333  0.00000000  0.00000000       0.083
   0.50000000  0.00000000  0.00000000       0.042
   0.16666667  0.16666667  0.00000000       0.083
   0.33333333  0.16666667  0.00000000       0.167
   0.33333333  0.33333333  0.00000000       0.028
   0.00000000  0.00000000  0.50000000       0.014
   0.16666667  0.00000000  0.50000000       0.083
   0.33333333  0.00000000  0.50000000       0.083
   0.50000000  0.00000000  0.50000000       0.042
   0.16666667  0.16666667  0.50000000       0.083
   0.33333333  0.16666667  0.50000000       0.167
   0.33333333  0.33333333  0.50000000       0.028
 
 position of ions in fractional coordinates (direct lattice) 
   0.00000000  0.00000000  0.35532000
   0.00000000  0.00000000  0.64468000
   0.33333300  0.66666700  0.02198700
   0.66666700  0.33333300  0.68865300
   0.33333300  0.66666700  0.31134700
   0.66666700  0.33333300  0.97801300
   0.00000000  0.00000000  0.14468000
   0.00000000  0.00000000  0.85532000
   0.33333300  0.66666700  0.81134700
   0.33333300  0.66666700  0.52198700
   0.66666700  0.33333300  0.47801300
   0.66666700  0.33333300  0.18865300
   0.30618000  0.00000000  0.25000000
   0.69382000  0.00000000  0.75000000
   0.63951300  0.66666700  0.91666700
   0.97284700  0.33333300  0.58333300
   0.02715300  0.66666700  0.41666700
   0.36048700  0.33333300  0.08333300
   0.00000000  0.30618000  0.25000000
   0.00000000  0.69382000  0.75000000
   0.33333300  0.97284700  0.91666700
   0.66666700  0.63951300  0.58333300
   0.33333300  0.36048700  0.41666700
   0.66666700  0.02715300  0.08333300
   0.69382000  0.69382000  0.25000000
   0.30618000  0.30618000  0.75000000
   0.02715300  0.36048700  0.91666700
   0.63951300  0.97284700  0.41666700
   0.36048700  0.02715300  0.58333300
   0.97284700  0.63951300  0.08333300
 
 position of ions in cartesian coordinates  (Angst):
   0.00000000  0.00000000  4.88852809
   0.00000000  0.00000000  8.86957191
  -0.00000252  2.90701745  0.30249934
   2.51755252  1.45350655  9.47455684
  -0.00000252  2.90701745  4.28354316
   2.51755252  1.45350655 13.45560066
   0.00000000  0.00000000  1.99052191
   0.00000000  0.00000000 11.76757809
  -0.00000252  2.90701745 11.16259316
  -0.00000252  2.90701745  7.18154934
   2.51755252  1.45350655  6.57655066
   2.51755252  1.45350655  2.59550684
   1.54164692  0.00000000  3.43952500
   3.49345308  0.00000000 10.31857500
   1.54164440  2.90701745 12.61159625
   4.05919944  1.45350655  8.02555375
  -1.54164944  2.90701745  5.73254625
   0.97590560  1.45350655  1.14650375
  -0.77082346  1.33510524  3.43952500
  -1.74672654  3.02541876 10.31857500
  -0.77082598  4.24212269 12.61159625
   1.74672906  2.78861178  8.02555375
   0.77082094  1.57191222  5.73254625
   3.28837598  0.11840131  1.14650375
   1.74672654  3.02541876  3.43952500
   0.77082346  1.33510524 10.31857500
  -0.77082598  1.57191222 12.61159625
   0.77082094  4.24212269  5.73254625
   1.74672906  0.11840131  8.02555375
   3.28837598  2.78861178  1.14650375
 


--------------------------------------------------------------------------------------------------------


 k-point  1 :   0.0000 0.0000 0.0000  plane waves:   12227
 k-point  2 :   0.1667 0.0000 0.0000  plane waves:   12179
 k-point  3 :   0.3333 0.0000 0.0000  plane waves:   12170
 k-point  4 :   0.5000 0.0000 0.0000  plane waves:   12152
 k-point  5 :   0.1667 0.1667 0.0000  plane waves:   12151
 k-point  6 :   0.3333 0.1667 0.0000  plane waves:   12165
 k-point  7 :   0.3333 0.3333 0.0000  plane waves:   12153
 k-point  8 :   0.0000 0.0000 0.5000  plane waves:   12166
 k-point  9 :   0.1667 0.0000 0.5000  plane waves:   12188
 k-point 10 :   0.3333 0.0000 0.5000  plane waves:   12144
 k-point 11 :   0.5000 0.0000 0.5000  plane waves:   12160
 k-point 12 :   0.1667 0.1667 0.5000  plane waves:   12166
 k-point 13 :   0.3333 0.1667 0.5000  plane waves:   12152
 k-point 14 :   0.3333 0.3333 0.5000  plane waves:   12156

 maximum and minimum number of plane-waves per node :      3071     3009

 maximum number of plane-waves:     12227
 maximum index in each direction: 
   IXMAX=   10   IYMAX=   10   IZMAX=   29
   IXMIN=  -11   IYMIN=  -11   IZMIN=  -29


 real space projection operators:
  total allocation   :      22452.75 KBytes
  max/ min on nodes  :       5626.88       5608.12


 parallel 3D FFT for wavefunctions:
    minimum data exchange during FFTs selected (reduces bandwidth)
 parallel 3D FFT for charge:
    minimum data exchange during FFTs selected (reduces bandwidth)


 total amount of memory used by VASP MPI-rank0   108340. kBytes
=======================================================================

   base      :      30000. kBytes
   nonlr-proj:      12080. kBytes
   fftplans  :       5154. kBytes
   grid      :      12969. kBytes
   one-center:        248. kBytes
   wavefun   :      47889. kBytes
 
     INWAV:  cpu time    0.0000: real time    0.0001
 Broyden mixing: mesh for mixing (old mesh)
   NGX = 21   NGY = 21   NGZ = 59
  (NGX  = 96   NGY  = 96   NGZ  =240)
  gives a total of  26019 points

 initial charge density was supplied:
 charge density of overlapping atoms calculated
 number of electron     276.0000000 magnetization      70.8000000
 keeping initial charge density in first step


--------------------------------------------------------------------------------------------------------


 Maximum index for non-local projection operator         2452
 Maximum index for augmentation-charges         1198 (set IRDMAX)


--------------------------------------------------------------------------------------------------------


 First call to EWALD:  gamma=   0.264
 Maximum number of real-space cells 4x 4x 2
 Maximum number of reciprocal cells 2x 2x 5

    FEWALD:  cpu time    0.0020: real time    0.0020


--------------------------------------- Iteration      1(   1)  ---------------------------------------


    POTLOK:  cpu time    0.1201: real time    0.1205
    SETDIJ:  cpu time    0.0157: real time    0.0158
     EDDAV:  cpu time   18.5492: real time   18.6124
 BZINTS: Fermi energy: 30.577678;276.000000 electrons
         Band energy:1646.283284;  BLOECHL correction: -0.110171
       DOS:  cpu time    0.0517: real time    0.0518
    --------------------------------------------
      LOOP:  cpu time   18.7368: real time   18.8005

 eigenvalue-minimisations  : 11544
 total energy-change (2. order) : 0.4662785E+04  (-0.1605670E+05)
 number of electron     276.0000000 magnetization      70.8000000
 augmentation part      276.0000000 magnetization      70.8000000

 Free energy of the ion-electron system (eV)
  ---------------------------------------------------
  alpha Z        PSCENC =      1362.55286497
  Ewald energy   TEWEN  =    -25513.06237826
  -Hartree energ DENC   =    -10371.14386019
  -exchange      EXHF   =         0.00000000
  -V(xc)+E(xc)   XCENC  =      1375.27778611
  PAW double counting   =     30224.59406688   -31333.39571732
  entropy T*S    EENTRO =         0.00000000
  eigenvalues    EBANDS =      1646.28328352
  atomic energy  EATOM  =     37271.67904475
  Solvation  Ediel_sol  =         0.00000000
  ---------------------------------------------------
  free energy    TOTEN  =      4662.78509046 eV

  energy without entropy =     4662.78509046  energy(sigma->0) =     4662.78509046


--------------------------------------------------------------------------------------------------------




--------------------------------------- Iteration      1(   2)  ---------------------------------------


     EDDAV:  cpu time   18.6710: real time   18.7207
 BZINTS: Fermi energy: 11.763768;276.000000 electrons
         Band energy:***********;  BLOECHL correction: -0.033398
       DOS:  cpu time    0.0501: real time    0.0502
    --------------------------------------------
      LOOP:  cpu time   18.7211: real time   18.7709

 eigenvalue-minimisations  : 11424
 total energy-change (2. order) :-0.4127277E+04  (-0.3766149E+04)
 number of electron     276.0000000 magnetization      70.8000000
 augmentation part      276.0000000 magnetization      70.8000000

 Free energy of the ion-electron system (eV)
  ---------------------------------------------------
  alpha Z        PSCENC =      1362.55286497
  Ewald energy   TEWEN  =    -25513.06237826
  -Hartree energ DENC   =    -10371.14386019
  -exchange      EXHF   =         0.00000000
  -V(xc)+E(xc)   XCENC  =      1375.27778611
  PAW double counting   =     30224.59406688   -31333.39571732
  entropy T*S    EENTRO =         0.00000000
  eigenvalues    EBANDS =     -2480.99375868
  atomic energy  EATOM  =     37271.67904475
  Solvation  Ediel_sol  =         0.00000000
  ---------------------------------------------------
  free energy    TOTEN  =       535.50804826 eV

  energy without entropy =      535.50804826  energy(sigma->0) =      535.50804826


--------------------------------------------------------------------------------------------------------




--------------------------------------- Iteration      1(   3)  ---------------------------------------


     EDDAV:  cpu time   19.4251: real time   19.4753
 BZINTS: Fermi energy:  8.628806;276.000000 electrons
         Band energy:***********;  BLOECHL correction:  0.000000
       DOS:  cpu time    0.0081: real time    0.0081
    --------------------------------------------
      LOOP:  cpu time   19.4332: real time   19.4834

 eigenvalue-minimisations  : 11868
 total energy-change (2. order) :-0.7755015E+03  (-0.6808439E+03)
 number of electron     276.0000000 magnetization      70.8000000
 augmentation part      276.0000000 magnetization      70.8000000

 Free energy of the ion-electron system (eV)
  ---------------------------------------------------
  alpha Z        PSCENC =      1362.55286497
  Ewald energy   TEWEN  =    -25513.06237826
  -Hartree energ DENC   =    -10371.14386019
  -exchange      EXHF   =         0.00000000
  -V(xc)+E(xc)   XCENC  =      1375.27778611
  PAW double counting   =     30224.59406688   -31333.39571732
  entropy T*S    EENTRO =         0.00000000
  eigenvalues    EBANDS =     -3256.49523600
  atomic energy  EATOM  =     37271.67904475
  Solvation  Ediel_sol  =         0.00000000
  ---------------------------------------------------
  free energy    TOTEN  =      -239.99342906 eV

  energy without entropy =     -239.99342906  energy(sigma->0) =     -239.99342906


--------------------------------------------------------------------------------------------------------




--------------------------------------- Iteration      1(   4)  ---------------------------------------


     EDDAV:  cpu time   20.4410: real time   20.4934
 BZINTS: Fermi energy:  8.196780;276.000000 electrons
         Band energy:***********;  BLOECHL correction:  0.000000
       DOS:  cpu time    0.0067: real time    0.0068
    --------------------------------------------
      LOOP:  cpu time   20.4477: real time   20.5001

 eigenvalue-minimisations  : 12972
 total energy-change (2. order) :-0.5385741E+02  (-0.5320347E+02)
 number of electron     276.0000000 magnetization      70.8000000
 augmentation part      276.0000000 magnetization      70.8000000

 Free energy of the ion-electron system (eV)
  ---------------------------------------------------
  alpha Z        PSCENC =      1362.55286497
  Ewald energy   TEWEN  =    -25513.06237826
  -Hartree energ DENC   =    -10371.14386019
  -exchange      EXHF   =         0.00000000
  -V(xc)+E(xc)   XCENC  =      1375.27778611
  PAW double counting   =     30224.59406688   -31333.39571732
  entropy T*S    EENTRO =         0.00000000
  eigenvalues    EBANDS =     -3310.35264966
  atomic energy  EATOM  =     37271.67904475
  Solvation  Ediel_sol  =         0.00000000
  ---------------------------------------------------
  free energy    TOTEN  =      -293.85084272 eV

  energy without entropy =     -293.85084272  energy(sigma->0) =     -293.85084272


--------------------------------------------------------------------------------------------------------




--------------------------------------- Iteration      1(   5)  ---------------------------------------


     EDDAV:  cpu time   20.2863: real time   20.3422
 BZINTS: Fermi energy:  8.164918;276.000000 electrons
         Band energy:***********;  BLOECHL correction:  0.000000
       DOS:  cpu time    0.0069: real time    0.0069
    CHARGE:  cpu time    0.7316: real time    0.7333
    MIXING:  cpu time    0.0029: real time    0.0029
    --------------------------------------------
      LOOP:  cpu time   21.0277: real time   21.0853

 eigenvalue-minimisations  : 12732
 total energy-change (2. order) :-0.6120329E+00  (-0.6103256E+00)
 number of electron     275.9999965 magnetization      67.8179403
 augmentation part      108.0168127 magnetization      47.0425954

 Broyden mixing:
  rms(total) = 0.80913E+01    rms(broyden)= 0.80912E+01
  rms(prec ) = 0.88375E+01
  weight for this iteration     100.00

 Free energy of the ion-electron system (eV)
  ---------------------------------------------------
  alpha Z        PSCENC =      1362.55286497
  Ewald energy   TEWEN  =    -25513.06237826
  -Hartree energ DENC   =    -10371.14386019
  -exchange      EXHF   =         0.00000000
  -V(xc)+E(xc)   XCENC  =      1375.27778611
  PAW double counting   =     30224.59406688   -31333.39571732
  entropy T*S    EENTRO =         0.00000000
  eigenvalues    EBANDS =     -3310.96468260
  atomic energy  EATOM  =     37271.67904475
  Solvation  Ediel_sol  =         0.00000000
  ---------------------------------------------------
  free energy    TOTEN  =      -294.46287566 eV

  energy without entropy =     -294.46287566  energy(sigma->0) =     -294.46287566


--------------------------------------------------------------------------------------------------------




--------------------------------------- Iteration      1(   6)  ---------------------------------------


    POTLOK:  cpu time    0.1168: real time    0.1176
    SETDIJ:  cpu time    0.0159: real time    0.0159
     EDDAV:  cpu time   22.8458: real time   22.9030
 BZINTS: Fermi energy:  5.535131;276.000000 electrons
         Band energy:***********;  BLOECHL correction: -0.054713
       DOS:  cpu time    0.0549: real time    0.0550
    CHARGE:  cpu time    0.7354: real time    0.7373
    MIXING:  cpu time    0.0029: real time    0.0030
    --------------------------------------------
      LOOP:  cpu time   23.7718: real time   23.8318

 eigenvalue-minimisations  : 14820
 total energy-change (2. order) : 0.5916280E+02  (-0.2531958E+02)
 number of electron     275.9999970 magnetization      62.9821830
 augmentation part      120.7212285 magnetization      54.4216181

 Broyden mixing:
  rms(total) = 0.91269E+01    rms(broyden)= 0.91267E+01
  rms(prec ) = 0.97765E+01
  weight for this iteration     100.00

 eigenvalues of (default mixing * dielectric matrix)
  average eigenvalue GAMMA=   0.3183
  0.3183

 Free energy of the ion-electron system (eV)
  ---------------------------------------------------
  alpha Z        PSCENC =      1362.55286497
  Ewald energy   TEWEN  =    -25513.06237826
  -Hartree energ DENC   =     -9965.77177454
  -exchange      EXHF   =         0.00000000
  -V(xc)+E(xc)   XCENC  =      1376.64606025
  PAW double counting   =     31437.14690948   -32504.02266588
  entropy T*S    EENTRO =         0.00000000
  eigenvalues    EBANDS =     -3700.46813655
  atomic energy  EATOM  =     37271.67904475
  Solvation  Ediel_sol  =         0.00000000
  ---------------------------------------------------
  free energy    TOTEN  =      -235.30007578 eV

  energy without entropy =     -235.30007578  energy(sigma->0) =     -235.30007578


--------------------------------------------------------------------------------------------------------




--------------------------------------- Iteration      1(   7)  ---------------------------------------


    POTLOK:  cpu time    0.1154: real time    0.1158
    SETDIJ:  cpu time    0.0154: real time    0.0154
     EDDAV:  cpu time   19.7528: real time   19.8024
 BZINTS: Fermi energy:  7.081902;276.000000 electrons
         Band energy:***********;  BLOECHL correction: -0.036291
       DOS:  cpu time    0.0535: real time    0.0536
    CHARGE:  cpu time    0.7230: real time    0.7248
    MIXING:  cpu time    0.0028: real time    0.0028
    --------------------------------------------
      LOOP:  cpu time   20.6628: real time   20.7148

 eigenvalue-minimisations  : 12276
 total energy-change (2. order) : 0.2360460E+02  (-0.1137887E+02)
 number of electron     275.9999968 magnetization      58.7874768
 augmentation part      109.3574842 magnetization      40.3069595

 Broyden mixing:
  rms(total) = 0.43672E+01    rms(broyden)= 0.43671E+01
  rms(prec ) = 0.45273E+01
  weight for this iteration     100.00

 eigenvalues of (default mixing * dielectric matrix)
  average eigenvalue GAMMA=   0.6795
  1.0290  0.3300

 Free energy of the ion-electron system (eV)
  ---------------------------------------------------
  alpha Z        PSCENC =      1362.55286497
  Ewald energy   TEWEN  =    -25513.06237826
  -Hartree energ DENC   =    -10207.72327933
  -exchange      EXHF   =         0.00000000
  -V(xc)+E(xc)   XCENC  =      1372.45437057
  PAW double counting   =     32869.90662403   -33998.32269605
  entropy T*S    EENTRO =         0.00000000
  eigenvalues    EBANDS =     -3369.18002328
  atomic energy  EATOM  =     37271.67904475
  Solvation  Ediel_sol  =         0.00000000
  ---------------------------------------------------
  free energy    TOTEN  =      -211.69547259 eV

  energy without entropy =     -211.69547259  energy(sigma->0) =     -211.69547259


--------------------------------------------------------------------------------------------------------




--------------------------------------- Iteration      1(   8)  ---------------------------------------


    POTLOK:  cpu time    0.1143: real time    0.1146
    SETDIJ:  cpu time    0.0155: real time    0.0155
     EDDAV:  cpu time   19.3409: real time   19.3894
 BZINTS: Fermi energy:  6.448882;276.000000 electrons
         Band energy:***********;  BLOECHL correction: -0.034104
       DOS:  cpu time    0.0523: real time    0.0524
    CHARGE:  cpu time    0.7255: real time    0.7273
    MIXING:  cpu time    0.0030: real time    0.0030
    --------------------------------------------
      LOOP:  cpu time   20.2514: real time   20.3022

 eigenvalue-minimisations  : 12132
 total energy-change (2. order) :-0.6626732E+01  (-0.2133682E+01)
 number of electron     275.9999968 magnetization      51.9062365
 augmentation part      111.2649023 magnetization      34.9948181

 Broyden mixing:
  rms(total) = 0.26433E+01    rms(broyden)= 0.26433E+01
  rms(prec ) = 0.27033E+01
  weight for this iteration     100.00

 eigenvalues of (default mixing * dielectric matrix)
  average eigenvalue GAMMA=   1.0800
  2.2722  0.5858  0.3819

 Free energy of the ion-electron system (eV)
  ---------------------------------------------------
  alpha Z        PSCENC =      1362.55286497
  Ewald energy   TEWEN  =    -25513.06237826
  -Hartree energ DENC   =    -10073.01378959
  -exchange      EXHF   =         0.00000000
  -V(xc)+E(xc)   XCENC  =      1366.43139478
  PAW double counting   =     34232.67129300   -35372.89527117
  entropy T*S    EENTRO =         0.00000000
  eigenvalues    EBANDS =     -3492.68536345
  atomic energy  EATOM  =     37271.67904475
  Solvation  Ediel_sol  =         0.00000000
  ---------------------------------------------------
  free energy    TOTEN  =      -218.32220496 eV

  energy without entropy =     -218.32220496  energy(sigma->0) =     -218.32220496


--------------------------------------------------------------------------------------------------------




--------------------------------------- Iteration      1(   9)  ---------------------------------------


    POTLOK:  cpu time    0.1149: real time    0.1159
    SETDIJ:  cpu time    0.0155: real time    0.0156
     EDDAV:  cpu time   20.0552: real time   20.1049
 BZINTS: Fermi energy:  5.875533;276.000000 electrons
         Band energy:***********;  BLOECHL correction: -0.039091
       DOS:  cpu time    0.0548: real time    0.0550
    CHARGE:  cpu time    0.7247: real time    0.7266
    MIXING:  cpu time    0.0030: real time    0.0030
    --------------------------------------------
      LOOP:  cpu time   20.9683: real time   21.0210

 eigenvalue-minimisations  : 12660
 total energy-change (2. order) :-0.4212197E+01  (-0.8259687E+00)
 number of electron     275.9999968 magnetization      50.9188709
 augmentation part      114.1625762 magnetization      37.8315519

 Broyden mixing:
  rms(total) = 0.27330E+01    rms(broyden)= 0.27329E+01
  rms(prec ) = 0.28658E+01
  weight for this iteration     100.00

 eigenvalues of (default mixing * dielectric matrix)
  average eigenvalue GAMMA=   1.1011
  2.8502  0.8040  0.3752  0.3752

 Free energy of the ion-electron system (eV)
  ---------------------------------------------------
  alpha Z        PSCENC =      1362.55286497
  Ewald energy   TEWEN  =    -25513.06237826
  -Hartree energ DENC   =     -9932.46510816
  -exchange      EXHF   =         0.00000000
  -V(xc)+E(xc)   XCENC  =      1362.32755021
  PAW double counting   =     36530.52032437   -37699.59360319
  entropy T*S    EENTRO =         0.00000000
  eigenvalues    EBANDS =     -3604.49309705
  atomic energy  EATOM  =     37271.67904475
  Solvation  Ediel_sol  =         0.00000000
  ---------------------------------------------------
  free energy    TOTEN  =      -222.53440236 eV

  energy without entropy =     -222.53440236  energy(sigma->0) =     -222.53440236


--------------------------------------------------------------------------------------------------------




--------------------------------------- Iteration      1(  10)  ---------------------------------------


    POTLOK:  cpu time    0.1147: real time    0.1155
    SETDIJ:  cpu time    0.0155: real time    0.0155
     EDDAV:  cpu time   20.1000: real time   20.1525
 BZINTS: Fermi energy:  5.957510;276.000000 electrons
         Band energy:***********;  BLOECHL correction: -0.037263
       DOS:  cpu time    0.0534: real time    0.0536
    CHARGE:  cpu time    0.7272: real time    0.7293
    MIXING:  cpu time    0.0031: real time    0.0031
    --------------------------------------------
      LOOP:  cpu time   21.0138: real time   21.0694

 eigenvalue-minimisations  : 12588
 total energy-change (2. order) : 0.3853632E+00  (-0.2474540E+00)
 number of electron     275.9999968 magnetization      50.6083615
 augmentation part      113.4253316 magnetization      37.3044736

 Broyden mixing:
  rms(total) = 0.18600E+01    rms(broyden)= 0.18600E+01
  rms(prec ) = 0.19713E+01
  weight for this iteration     100.00

 eigenvalues of (default mixing * dielectric matrix)
  average eigenvalue GAMMA=   1.0195
  2.6165  0.3737  0.7703  0.6685  0.6685

 Free energy of the ion-electron system (eV)
  ---------------------------------------------------
  alpha Z        PSCENC =      1362.55286497
  Ewald energy   TEWEN  =    -25513.06237826
  -Hartree energ DENC   =     -9948.85921593
  -exchange      EXHF   =         0.00000000
  -V(xc)+E(xc)   XCENC  =      1360.89779691
  PAW double counting   =     36554.02564333   -37726.30013132
  entropy T*S    EENTRO =         0.00000000
  eigenvalues    EBANDS =     -3583.08266356
  atomic energy  EATOM  =     37271.67904475
  Solvation  Ediel_sol  =         0.00000000
  ---------------------------------------------------
  free energy    TOTEN  =      -222.14903911 eV

  energy without entropy =     -222.14903911  energy(sigma->0) =     -222.14903911


--------------------------------------------------------------------------------------------------------




--------------------------------------- Iteration      1(  11)  ---------------------------------------


    POTLOK:  cpu time    0.1143: real time    0.1148
    SETDIJ:  cpu time    0.0152: real time    0.0153
     EDDAV:  cpu time   22.5913: real time   22.6486
 BZINTS: Fermi energy:  6.019559;276.000000 electrons
         Band energy:***********;  BLOECHL correction: -0.034013
       DOS:  cpu time    0.0563: real time    0.0564
    CHARGE:  cpu time    0.7877: real time    0.7897
    MIXING:  cpu time    0.0033: real time    0.0033
    --------------------------------------------
      LOOP:  cpu time   23.5681: real time   23.6279

 eigenvalue-minimisations  : 14268
 total energy-change (2. order) : 0.5710064E+00  (-0.2372970E-01)
 number of electron     275.9999968 magnetization      49.3028917
 augmentation part      113.0011183 magnetization      35.6103061

 Broyden mixing:
  rms(total) = 0.12133E+01    rms(broyden)= 0.12133E+01
  rms(prec ) = 0.12867E+01
  weight for this iteration     100.00

 eigenvalues of (default mixing * dielectric matrix)
  average eigenvalue GAMMA=   1.0457
  2.5836  0.9725  0.9725  0.3787  0.7993  0.5676

 Free energy of the ion-electron system (eV)
  ---------------------------------------------------
  alpha Z        PSCENC =      1362.55286497
  Ewald energy   TEWEN  =    -25513.06237826
  -Hartree energ DENC   =     -9960.08869684
  -exchange      EXHF   =         0.00000000
  -V(xc)+E(xc)   XCENC  =      1360.21926313
  PAW double counting   =     36382.99877640   -37553.25978803
  entropy T*S    EENTRO =         0.00000000
  eigenvalues    EBANDS =     -3572.61711878
  atomic energy  EATOM  =     37271.67904475
  Solvation  Ediel_sol  =         0.00000000
  ---------------------------------------------------
  free energy    TOTEN  =      -221.57803267 eV

  energy without entropy =     -221.57803267  energy(sigma->0) =     -221.57803267


--------------------------------------------------------------------------------------------------------




--------------------------------------- Iteration      1(  12)  ---------------------------------------


    POTLOK:  cpu time    0.1191: real time    0.1200
    SETDIJ:  cpu time    0.0165: real time    0.0166
     EDDAV:  cpu time   23.7357: real time   23.8043
 BZINTS: Fermi energy:  6.079700;276.000000 electrons
         Band energy:***********;  BLOECHL correction: -0.033385
       DOS:  cpu time    0.0522: real time    0.0524
    CHARGE:  cpu time    0.7290: real time    0.7308
    MIXING:  cpu time    0.0033: real time    0.0033
    --------------------------------------------
      LOOP:  cpu time   24.6558: real time   24.7273

 eigenvalue-minimisations  : 15252
 total energy-change (2. order) : 0.1997573E+00  (-0.1950521E-01)
 number of electron     275.9999968 magnetization      46.8727790
 augmentation part      112.6824368 magnetization      33.0806011

 Broyden mixing:
  rms(total) = 0.84411E+00    rms(broyden)= 0.84411E+00
  rms(prec ) = 0.88529E+00
  weight for this iteration     100.00

 eigenvalues of (default mixing * dielectric matrix)
  average eigenvalue GAMMA=   1.0962
  2.1200  1.7210  1.4326  0.3773  0.7511  0.6357  0.6357

 Free energy of the ion-electron system (eV)
  ---------------------------------------------------
  alpha Z        PSCENC =      1362.55286497
  Ewald energy   TEWEN  =    -25513.06237826
  -Hartree energ DENC   =     -9973.21259465
  -exchange      EXHF   =         0.00000000
  -V(xc)+E(xc)   XCENC  =      1359.59032486
  PAW double counting   =     36268.32694113   -37437.55733285
  entropy T*S    EENTRO =         0.00000000
  eigenvalues    EBANDS =     -3559.69514537
  atomic energy  EATOM  =     37271.67904475
  Solvation  Ediel_sol  =         0.00000000
  ---------------------------------------------------
  free energy    TOTEN  =      -221.37827542 eV

  energy without entropy =     -221.37827542  energy(sigma->0) =     -221.37827542


--------------------------------------------------------------------------------------------------------




--------------------------------------- Iteration      1(  13)  ---------------------------------------


    POTLOK:  cpu time    0.1153: real time    0.1162
    SETDIJ:  cpu time    0.0157: real time    0.0158
     EDDAV:  cpu time   21.7765: real time   21.8340
 BZINTS: Fermi energy:  6.140070;276.000000 electrons
         Band energy:***********;  BLOECHL correction: -0.034445
       DOS:  cpu time    0.0549: real time    0.0551
    CHARGE:  cpu time    0.7400: real time    0.7417
    MIXING:  cpu time    0.0034: real time    0.0034
    --------------------------------------------
      LOOP:  cpu time   22.7059: real time   22.7661

 eigenvalue-minimisations  : 13908
 total energy-change (2. order) : 0.3669724E-02  (-0.1120343E-01)
 number of electron     275.9999968 magnetization      43.9588522
 augmentation part      112.4082212 magnetization      30.4094695

 Broyden mixing:
  rms(total) = 0.46442E+00    rms(broyden)= 0.46442E+00
  rms(prec ) = 0.48762E+00
  weight for this iteration     100.00

 eigenvalues of (default mixing * dielectric matrix)
  average eigenvalue GAMMA=   1.3956
  3.4390  3.4390  0.3776  0.9304  0.9304  0.7235  0.7235  0.6012

 Free energy of the ion-electron system (eV)
  ---------------------------------------------------
  alpha Z        PSCENC =      1362.55286497
  Ewald energy   TEWEN  =    -25513.06237826
  -Hartree energ DENC   =     -9991.35973166
  -exchange      EXHF   =         0.00000000
  -V(xc)+E(xc)   XCENC  =      1358.77286350
  PAW double counting   =     36038.89529520   -37205.09877980
  entropy T*S    EENTRO =         0.00000000
  eigenvalues    EBANDS =     -3543.75378440
  atomic energy  EATOM  =     37271.67904475
  Solvation  Ediel_sol  =         0.00000000
  ---------------------------------------------------
  free energy    TOTEN  =      -221.37460570 eV

  energy without entropy =     -221.37460570  energy(sigma->0) =     -221.37460570


--------------------------------------------------------------------------------------------------------




--------------------------------------- Iteration      1(  14)  ---------------------------------------


    POTLOK:  cpu time    0.1180: real time    0.1187
    SETDIJ:  cpu time    0.0162: real time    0.0162
     EDDAV:  cpu time   23.4013: real time   23.4636
 BZINTS: Fermi energy:  6.172869;276.000000 electrons
         Band energy:***********;  BLOECHL correction: -0.032761
       DOS:  cpu time    0.0548: real time    0.0550
    CHARGE:  cpu time    0.7278: real time    0.7297
    MIXING:  cpu time    0.0037: real time    0.0037
    --------------------------------------------
      LOOP:  cpu time   24.3219: real time   24.3868

 eigenvalue-minimisations  : 15072
 total energy-change (2. order) :-0.4584754E-01  (-0.1568650E-01)
 number of electron     275.9999968 magnetization      43.0519414
 augmentation part      112.2216184 magnetization      29.8874677

 Broyden mixing:
  rms(total) = 0.17733E+00    rms(broyden)= 0.17732E+00
  rms(prec ) = 0.18462E+00
  weight for this iteration     100.00

 eigenvalues of (default mixing * dielectric matrix)
  average eigenvalue GAMMA=   1.5077
  5.3644  2.7760  1.2317  0.3776  0.8431  0.8431  0.8795  0.6268  0.6268

 Free energy of the ion-electron system (eV)
  ---------------------------------------------------
  alpha Z        PSCENC =      1362.55286497
  Ewald energy   TEWEN  =    -25513.06237826
  -Hartree energ DENC   =    -10004.11953330
  -exchange      EXHF   =         0.00000000
  -V(xc)+E(xc)   XCENC  =      1357.67863383
  PAW double counting   =     35837.32367404   -37000.50052667
  entropy T*S    EENTRO =         0.00000000
  eigenvalues    EBANDS =     -3532.97223260
  atomic energy  EATOM  =     37271.67904475
  Solvation  Ediel_sol  =         0.00000000
  ---------------------------------------------------
  free energy    TOTEN  =      -221.42045324 eV

  energy without entropy =     -221.42045324  energy(sigma->0) =     -221.42045324


--------------------------------------------------------------------------------------------------------




--------------------------------------- Iteration      1(  15)  ---------------------------------------


    POTLOK:  cpu time    0.1159: real time    0.1163
    SETDIJ:  cpu time    0.0157: real time    0.0158
     EDDAV:  cpu time   20.0806: real time   20.1427
 BZINTS: Fermi energy:  6.157667;276.000000 electrons
         Band energy:***********;  BLOECHL correction: -0.032992
       DOS:  cpu time    0.0500: real time    0.0501
    CHARGE:  cpu time    0.7557: real time    0.7576
    MIXING:  cpu time    0.0040: real time    0.0040
    --------------------------------------------
      LOOP:  cpu time   21.0219: real time   21.0865

 eigenvalue-minimisations  : 12456
 total energy-change (2. order) :-0.1870763E-01  (-0.6431183E-02)
 number of electron     275.9999968 magnetization      42.6176913
 augmentation part      112.2779998 magnetization      29.6293020

 Broyden mixing:
  rms(total) = 0.14240E+00    rms(broyden)= 0.14240E+00
  rms(prec ) = 0.15093E+00
  weight for this iteration     100.00

 eigenvalues of (default mixing * dielectric matrix)
  average eigenvalue GAMMA=   1.5457
  6.1127  2.8487  1.3652  1.0742  0.3776  0.8475  0.8475  0.6938  0.6938  0.5957

 Free energy of the ion-electron system (eV)
  ---------------------------------------------------
  alpha Z        PSCENC =      1362.55286497
  Ewald energy   TEWEN  =    -25513.06237826
  -Hartree energ DENC   =    -10002.56478010
  -exchange      EXHF   =         0.00000000
  -V(xc)+E(xc)   XCENC  =      1357.18308843
  PAW double counting   =     35825.88712634   -36988.70758873
  entropy T*S    EENTRO =         0.00000000
  eigenvalues    EBANDS =     -3534.40653826
  atomic energy  EATOM  =     37271.67904475
  Solvation  Ediel_sol  =         0.00000000
  ---------------------------------------------------
  free energy    TOTEN  =      -221.43916087 eV

  energy without entropy =     -221.43916087  energy(sigma->0) =     -221.43916087


--------------------------------------------------------------------------------------------------------




--------------------------------------- Iteration      1(  16)  ---------------------------------------


    POTLOK:  cpu time    0.1170: real time    0.1179
    SETDIJ:  cpu time    0.0166: real time    0.0166
     EDDAV:  cpu time   22.1844: real time   22.2826
 BZINTS: Fermi energy:  6.179521;276.000000 electrons
         Band energy:***********;  BLOECHL correction: -0.032858
       DOS:  cpu time    0.0549: real time    0.0550
    CHARGE:  cpu time    0.8146: real time    0.8170
    MIXING:  cpu time    0.0044: real time    0.0044
    --------------------------------------------
      LOOP:  cpu time   23.1918: real time   23.2936

 eigenvalue-minimisations  : 14328
 total energy-change (2. order) : 0.5175724E-02  (-0.9455258E-03)
 number of electron     275.9999968 magnetization      42.4851394
 augmentation part      112.1850979 magnetization      29.4938975

 Broyden mixing:
  rms(total) = 0.35636E-01    rms(broyden)= 0.35632E-01
  rms(prec ) = 0.37187E-01
  weight for this iteration     100.00

 eigenvalues of (default mixing * dielectric matrix)
  average eigenvalue GAMMA=   1.5354
  6.2972  2.7887  1.3144  1.3144  1.1068  0.3776  0.8114  0.8114  0.7294  0.7294
  0.6083

 Free energy of the ion-electron system (eV)
  ---------------------------------------------------
  alpha Z        PSCENC =      1362.55286497
  Ewald energy   TEWEN  =    -25513.06237826
  -Hartree energ DENC   =    -10007.28132300
  -exchange      EXHF   =         0.00000000
  -V(xc)+E(xc)   XCENC  =      1357.07702070
  PAW double counting   =     35784.17698861   -36946.91156583
  entropy T*S    EENTRO =         0.00000000
  eigenvalues    EBANDS =     -3529.66463707
  atomic energy  EATOM  =     37271.67904475
  Solvation  Ediel_sol  =         0.00000000
  ---------------------------------------------------
  free energy    TOTEN  =      -221.43398514 eV

  energy without entropy =     -221.43398514  energy(sigma->0) =     -221.43398514


--------------------------------------------------------------------------------------------------------




--------------------------------------- Iteration      1(  17)  ---------------------------------------


    POTLOK:  cpu time    0.1225: real time    0.1233
    SETDIJ:  cpu time    0.0170: real time    0.0171
     EDDAV:  cpu time   19.7916: real time   19.8404
 BZINTS: Fermi energy:  6.180561;276.000000 electrons
         Band energy:***********;  BLOECHL correction: -0.032805
       DOS:  cpu time    0.0507: real time    0.0508
    CHARGE:  cpu time    0.7264: real time    0.7282
    MIXING:  cpu time    0.0039: real time    0.0039
    --------------------------------------------
      LOOP:  cpu time   20.7121: real time   20.7638

 eigenvalue-minimisations  : 12384
 total energy-change (2. order) :-0.6843983E-03  (-0.4653285E-03)
 number of electron     275.9999968 magnetization      42.3907437
 augmentation part      112.1814502 magnetization      29.4130293

 Broyden mixing:
  rms(total) = 0.18527E-01    rms(broyden)= 0.18526E-01
  rms(prec ) = 0.19105E-01
  weight for this iteration     100.00

 eigenvalues of (default mixing * dielectric matrix)
  average eigenvalue GAMMA=   1.5595
  6.4912  2.7672  2.4511  1.0763  1.0763  0.3776  0.8892  0.8892  0.7190  0.7190
  0.6036  0.6539

 Free energy of the ion-electron system (eV)
  ---------------------------------------------------
  alpha Z        PSCENC =      1362.55286497
  Ewald energy   TEWEN  =    -25513.06237826
  -Hartree energ DENC   =    -10006.99805802
  -exchange      EXHF   =         0.00000000
  -V(xc)+E(xc)   XCENC  =      1357.01573224
  PAW double counting   =     35804.04577925   -36967.33744892
  entropy T*S    EENTRO =         0.00000000
  eigenvalues    EBANDS =     -3529.33020555
  atomic energy  EATOM  =     37271.67904475
  Solvation  Ediel_sol  =         0.00000000
  ---------------------------------------------------
  free energy    TOTEN  =      -221.43466954 eV

  energy without entropy =     -221.43466954  energy(sigma->0) =     -221.43466954


--------------------------------------------------------------------------------------------------------




--------------------------------------- Iteration      1(  18)  ---------------------------------------


    POTLOK:  cpu time    0.1160: real time    0.1164
    SETDIJ:  cpu time    0.0155: real time    0.0155
     EDDAV:  cpu time   22.1981: real time   22.2537
 BZINTS: Fermi energy:  6.180859;276.000000 electrons
         Band energy:***********;  BLOECHL correction: -0.032932
       DOS:  cpu time    0.0551: real time    0.0552
    CHARGE:  cpu time    0.7282: real time    0.7300
    MIXING:  cpu time    0.0040: real time    0.0040
    --------------------------------------------
      LOOP:  cpu time   23.1169: real time   23.1748

 eigenvalue-minimisations  : 14100
 total energy-change (2. order) :-0.2404325E-03  (-0.2192016E-04)
 number of electron     275.9999968 magnetization      42.3378404
 augmentation part      112.1771873 magnetization      29.3776769

 Broyden mixing:
  rms(total) = 0.90788E-02    rms(broyden)= 0.90781E-02
  rms(prec ) = 0.94502E-02
  weight for this iteration     100.00

 eigenvalues of (default mixing * dielectric matrix)
  average eigenvalue GAMMA=   1.5307
  6.6253  2.8414  2.4451  1.1515  1.1515  0.9571  0.9571  0.3776  0.7395  0.7395
  0.6905  0.6117  0.6117

 Free energy of the ion-electron system (eV)
  ---------------------------------------------------
  alpha Z        PSCENC =      1362.55286497
  Ewald energy   TEWEN  =    -25513.06237826
  -Hartree energ DENC   =    -10007.24768965
  -exchange      EXHF   =         0.00000000
  -V(xc)+E(xc)   XCENC  =      1356.96830078
  PAW double counting   =     35802.58990828   -36965.93148109
  entropy T*S    EENTRO =         0.00000000
  eigenvalues    EBANDS =     -3528.98347976
  atomic energy  EATOM  =     37271.67904475
  Solvation  Ediel_sol  =         0.00000000
  ---------------------------------------------------
  free energy    TOTEN  =      -221.43490997 eV

  energy without entropy =     -221.43490997  energy(sigma->0) =     -221.43490997


--------------------------------------------------------------------------------------------------------




--------------------------------------- Iteration      1(  19)  ---------------------------------------


    POTLOK:  cpu time    0.1150: real time    0.1154
    SETDIJ:  cpu time    0.0155: real time    0.0155
     EDDAV:  cpu time   21.5193: real time   21.5800
 BZINTS: Fermi energy:  6.181879;276.000000 electrons
         Band energy:***********;  BLOECHL correction: -0.032993
       DOS:  cpu time    0.0553: real time    0.0554
    CHARGE:  cpu time    0.7261: real time    0.7279
    MIXING:  cpu time    0.0042: real time    0.0042
    --------------------------------------------
      LOOP:  cpu time   22.4355: real time   22.4985

 eigenvalue-minimisations  : 13752
 total energy-change (2. order) :-0.5809866E-04  (-0.9513348E-05)
 number of electron     275.9999968 magnetization      42.3277199
 augmentation part      112.1725637 magnetization      29.3759905

 Broyden mixing:
  rms(total) = 0.18015E-02    rms(broyden)= 0.18002E-02
  rms(prec ) = 0.19211E-02
  weight for this iteration     100.00

 eigenvalues of (default mixing * dielectric matrix)
  average eigenvalue GAMMA=   1.5144
  6.6963  2.8505  2.4184  1.3032  1.3032  0.9912  0.9912  0.3776  0.7736  0.7736
  0.7482  0.7482  0.6134  0.6134

 Free energy of the ion-electron system (eV)
  ---------------------------------------------------
  alpha Z        PSCENC =      1362.55286497
  Ewald energy   TEWEN  =    -25513.06237826
  -Hartree energ DENC   =    -10007.60288034
  -exchange      EXHF   =         0.00000000
  -V(xc)+E(xc)   XCENC  =      1356.94738863
  PAW double counting   =     35798.00972813   -36961.29631451
  entropy T*S    EENTRO =         0.00000000
  eigenvalues    EBANDS =     -3528.66242144
  atomic energy  EATOM  =     37271.67904475
  Solvation  Ediel_sol  =         0.00000000
  ---------------------------------------------------
  free energy    TOTEN  =      -221.43496807 eV

  energy without entropy =     -221.43496807  energy(sigma->0) =     -221.43496807


--------------------------------------------------------------------------------------------------------




--------------------------------------- Iteration      1(  20)  ---------------------------------------


    POTLOK:  cpu time    0.1145: real time    0.1153
    SETDIJ:  cpu time    0.0152: real time    0.0153
     EDDAV:  cpu time   19.7438: real time   19.7928
 BZINTS: Fermi energy:  6.182230;276.000000 electrons
         Band energy:***********;  BLOECHL correction: -0.033002
       DOS:  cpu time    0.0532: real time    0.0533
    CHARGE:  cpu time    0.7267: real time    0.7284
    MIXING:  cpu time    0.0041: real time    0.0041
    --------------------------------------------
      LOOP:  cpu time   20.6576: real time   20.7092

 eigenvalue-minimisations  : 12504
 total energy-change (2. order) :-0.1122248E-04  (-0.2646715E-05)
 number of electron     275.9999968 magnetization      42.3242410
 augmentation part      112.1717604 magnetization      29.3741739

 Broyden mixing:
  rms(total) = 0.93445E-03    rms(broyden)= 0.93415E-03
  rms(prec ) = 0.95359E-03
  weight for this iteration     100.00

 eigenvalues of (default mixing * dielectric matrix)
  average eigenvalue GAMMA=   1.5055
  6.7262  2.9610  2.4002  1.8032  1.0804  1.0804  1.0074  1.0074  0.3776  0.7357
  0.7357  0.7344  0.6040  0.6647  0.6647

 Free energy of the ion-electron system (eV)
  ---------------------------------------------------
  alpha Z        PSCENC =      1362.55286497
  Ewald energy   TEWEN  =    -25513.06237826
  -Hartree energ DENC   =    -10007.68689593
  -exchange      EXHF   =         0.00000000
  -V(xc)+E(xc)   XCENC  =      1356.94296122
  PAW double counting   =     35797.78678825   -36961.07687494
  entropy T*S    EENTRO =         0.00000000
  eigenvalues    EBANDS =     -3528.57048935
  atomic energy  EATOM  =     37271.67904475
  Solvation  Ediel_sol  =         0.00000000
  ---------------------------------------------------
  free energy    TOTEN  =      -221.43497930 eV

  energy without entropy =     -221.43497930  energy(sigma->0) =     -221.43497930


--------------------------------------------------------------------------------------------------------




--------------------------------------- Iteration      1(  21)  ---------------------------------------


    POTLOK:  cpu time    0.1142: real time    0.1147
    SETDIJ:  cpu time    0.0155: real time    0.0155
     EDDAV:  cpu time   19.8760: real time   19.9253
 BZINTS: Fermi energy:  6.182559;276.000000 electrons
         Band energy:***********;  BLOECHL correction: -0.033001
       DOS:  cpu time    0.0537: real time    0.0539
    CHARGE:  cpu time    0.7233: real time    0.7251
    MIXING:  cpu time    0.0050: real time    0.0050
    --------------------------------------------
      LOOP:  cpu time   20.7878: real time   20.8395

 eigenvalue-minimisations  : 12576
 total energy-change (2. order) : 0.7575800E-06  (-0.2133662E-06)
 number of electron     275.9999968 magnetization      42.3261698
 augmentation part      112.1706861 magnetization      29.3759778

 Broyden mixing:
  rms(total) = 0.11426E-02    rms(broyden)= 0.11425E-02
  rms(prec ) = 0.12080E-02
  weight for this iteration     100.00

 eigenvalues of (default mixing * dielectric matrix)
  average eigenvalue GAMMA=   1.5034
  6.7303  3.0196  2.3881  2.2399  1.1949  1.1949  0.9947  0.9947  0.3776  0.7792
  0.7792  0.7367  0.7367  0.6577  0.6147  0.6147

 Free energy of the ion-electron system (eV)
  ---------------------------------------------------
  alpha Z        PSCENC =      1362.55286497
  Ewald energy   TEWEN  =    -25513.06237826
  -Hartree energ DENC   =    -10007.75690063
  -exchange      EXHF   =         0.00000000
  -V(xc)+E(xc)   XCENC  =      1356.94350650
  PAW double counting   =     35797.38169283   -36960.67911688
  entropy T*S    EENTRO =         0.00000000
  eigenvalues    EBANDS =     -3528.49369183
  atomic energy  EATOM  =     37271.67904475
  Solvation  Ediel_sol  =         0.00000000
  ---------------------------------------------------
  free energy    TOTEN  =      -221.43497854 eV

  energy without entropy =     -221.43497854  energy(sigma->0) =     -221.43497854


--------------------------------------------------------------------------------------------------------




--------------------------------------- Iteration      1(  22)  ---------------------------------------


    POTLOK:  cpu time    0.1152: real time    0.1155
    SETDIJ:  cpu time    0.0155: real time    0.0155
     EDDAV:  cpu time   17.9545: real time   18.0001
 BZINTS: Fermi energy:  6.182421;276.000000 electrons
         Band energy:***********;  BLOECHL correction: -0.033003
       DOS:  cpu time    0.0550: real time    0.0551
    CHARGE:  cpu time    0.7234: real time    0.7252
    MIXING:  cpu time    0.0052: real time    0.0052
    --------------------------------------------
      LOOP:  cpu time   18.8687: real time   18.9167

 eigenvalue-minimisations  : 10764
 total energy-change (2. order) :-0.1159126E-05  (-0.1066956E-06)
 number of electron     275.9999968 magnetization      42.3284869
 augmentation part      112.1713143 magnetization      29.3783790

 Broyden mixing:
  rms(total) = 0.55825E-03    rms(broyden)= 0.55824E-03
  rms(prec ) = 0.58726E-03
  weight for this iteration     100.00

 eigenvalues of (default mixing * dielectric matrix)
  average eigenvalue GAMMA=   1.4855
  6.7136  2.9940  2.6220  2.1852  1.2342  1.2342  1.0201  1.0201  0.3776  0.8756
  0.8756  0.7389  0.7389  0.7600  0.6073  0.6278  0.6278

 Free energy of the ion-electron system (eV)
  ---------------------------------------------------
  alpha Z        PSCENC =      1362.55286497
  Ewald energy   TEWEN  =    -25513.06237826
  -Hartree energ DENC   =    -10007.72550449
  -exchange      EXHF   =         0.00000000
  -V(xc)+E(xc)   XCENC  =      1356.94377654
  PAW double counting   =     35797.64254937   -36960.94268940
  entropy T*S    EENTRO =         0.00000000
  eigenvalues    EBANDS =     -3528.52264318
  atomic energy  EATOM  =     37271.67904475
  Solvation  Ediel_sol  =         0.00000000
  ---------------------------------------------------
  free energy    TOTEN  =      -221.43497970 eV

  energy without entropy =     -221.43497970  energy(sigma->0) =     -221.43497970


--------------------------------------------------------------------------------------------------------




--------------------------------------- Iteration      1(  23)  ---------------------------------------


    POTLOK:  cpu time    0.1184: real time    0.1187
    SETDIJ:  cpu time    0.0154: real time    0.0155
     EDDAV:  cpu time   16.5761: real time   16.6171
 BZINTS: Fermi energy:  6.182331;276.000000 electrons
         Band energy:***********;  BLOECHL correction: -0.033002
       DOS:  cpu time    0.0534: real time    0.0536
    CHARGE:  cpu time    0.7217: real time    0.7235
    MIXING:  cpu time    0.0046: real time    0.0046
    --------------------------------------------
      LOOP:  cpu time   17.4897: real time   17.5329

 eigenvalue-minimisations  :  9732
 total energy-change (2. order) : 0.4001922E-06  (-0.2996806E-07)
 number of electron     275.9999968 magnetization      42.3290331
 augmentation part      112.1717024 magnetization      29.3787516

 Broyden mixing:
  rms(total) = 0.87438E-04    rms(broyden)= 0.87411E-04
  rms(prec ) = 0.90244E-04
  weight for this iteration     100.00

 eigenvalues of (default mixing * dielectric matrix)
  average eigenvalue GAMMA=   1.4849
  6.7093  3.0140  2.7093  2.2607  1.4148  1.4148  1.0234  1.0234  0.3776  0.9557
  0.9557  0.7402  0.7402  0.8040  0.6746  0.6746  0.6127  0.6239

 Free energy of the ion-electron system (eV)
  ---------------------------------------------------
  alpha Z        PSCENC =      1362.55286497
  Ewald energy   TEWEN  =    -25513.06237826
  -Hartree energ DENC   =    -10007.70174599
  -exchange      EXHF   =         0.00000000
  -V(xc)+E(xc)   XCENC  =      1356.94454084
  PAW double counting   =     35797.88450323   -36961.18781800
  entropy T*S    EENTRO =         0.00000000
  eigenvalues    EBANDS =     -3528.54399083
  atomic energy  EATOM  =     37271.67904475
  Solvation  Ediel_sol  =         0.00000000
  ---------------------------------------------------
  free energy    TOTEN  =      -221.43497930 eV

  energy without entropy =     -221.43497930  energy(sigma->0) =     -221.43497930


--------------------------------------------------------------------------------------------------------




--------------------------------------- Iteration      1(  24)  ---------------------------------------


    POTLOK:  cpu time    0.1145: real time    0.1149
    SETDIJ:  cpu time    0.0156: real time    0.0156
     EDDAV:  cpu time   12.8662: real time   12.8978
 BZINTS: Fermi energy:  6.182335;276.000000 electrons
         Band energy:***********;  BLOECHL correction: -0.033002
       DOS:  cpu time    0.0545: real time    0.0546
    CHARGE:  cpu time    0.7216: real time    0.7233
    MIXING:  cpu time    0.0048: real time    0.0048
    --------------------------------------------
      LOOP:  cpu time   13.7771: real time   13.8110

 eigenvalue-minimisations  :  6696
 total energy-change (2. order) : 0.6817136E-06  (-0.9661001E-08)
 number of electron     275.9999968 magnetization      42.3290854
 augmentation part      112.1716783 magnetization      29.3787118

 Broyden mixing:
  rms(total) = 0.41284E-04    rms(broyden)= 0.41274E-04
  rms(prec ) = 0.42896E-04
  weight for this iteration     100.00

 eigenvalues of (default mixing * dielectric matrix)
[...]
  0.000  -0.002  -0.000  -0.000  -0.001   0.000  -0.000  -0.000  -0.006  -0.000   0.000   0.000   0.000   0.009  -0.000  -0.000
 total augmentation occupancy for first ion, spin component:           2
 -0.003  -0.000  -0.000  -0.010  -0.000   0.000   0.002   0.001  -0.000   0.000   0.000  -0.003  -0.002   0.000  -0.000  -0.000
 -0.000  -0.003  -0.000  -0.000  -0.010   0.000   0.000   0.000  -0.001   0.000   0.000  -0.000  -0.000   0.002   0.000  -0.000
  0.000   0.000  -0.003  -0.000  -0.000  -0.010   0.000  -0.000   0.000   0.001  -0.002  -0.000   0.000  -0.000  -0.002   0.003
 -0.010   0.000  -0.000   0.021  -0.000   0.000  -0.085  -0.050  -0.000   0.002   0.013   0.049   0.032   0.000  -0.001  -0.008
  0.000  -0.010  -0.000  -0.000   0.017  -0.000   0.000   0.000   0.076   0.000  -0.000  -0.000  -0.000  -0.043   0.000   0.000
  0.000   0.000  -0.010   0.000   0.000   0.021   0.013  -0.002  -0.000  -0.050   0.085  -0.008   0.001   0.000   0.032  -0.049
  0.002  -0.000   0.000  -0.085   0.000   0.013   4.294   0.576  -0.000  -0.179  -0.000  -2.427  -0.470  -0.000   0.166   0.002
  0.001   0.000  -0.000  -0.050   0.000  -0.002   0.576   5.019   0.000  -0.000  -0.179  -0.469  -3.024  -0.000   0.003   0.166
 -0.000  -0.001   0.000  -0.000   0.076  -0.000   0.000   0.000   4.387   0.000  -0.000   0.000  -0.000  -2.383  -0.000   0.000
  0.000   0.000   0.001   0.002   0.000  -0.050  -0.179   0.000   0.000   5.019  -0.576   0.166  -0.003  -0.000  -3.024   0.469
  0.000   0.000  -0.002   0.013  -0.000   0.085  -0.000  -0.179  -0.000  -0.576   4.294  -0.002   0.166   0.000   0.470  -2.427
 -0.003   0.000  -0.000   0.049  -0.000  -0.008  -2.427  -0.469   0.000   0.166  -0.002   1.294   0.331  -0.000  -0.129   0.000
 -0.002  -0.000   0.000   0.032  -0.000   0.001  -0.470  -3.024  -0.000  -0.003   0.166   0.331   1.750   0.000  -0.000  -0.129
  0.000   0.002  -0.000   0.000  -0.043   0.000  -0.000  -0.000  -2.383  -0.000   0.000  -0.000   0.000   1.231   0.000  -0.000
 -0.000   0.000  -0.002  -0.001  -0.000   0.032   0.166   0.003  -0.000  -3.024   0.470  -0.129   0.000   0.000   1.750  -0.331
 -0.000  -0.000   0.003  -0.008   0.000  -0.049   0.002   0.166   0.000   0.469  -2.427   0.000  -0.129  -0.000  -0.331   1.294
  0.000   0.000  -0.000   0.000   0.001   0.000  -0.000   0.000   0.044   0.000  -0.000  -0.000   0.000  -0.022   0.000   0.000
 -0.000   0.000   0.000  -0.000   0.001  -0.000  -0.000  -0.000   0.007   0.000  -0.000   0.000   0.000  -0.005   0.000   0.000


------------------------ aborting loop because EDIFF is reached ----------------------------------------


 


 total charge     
 
# of ion       s       p       d       tot
------------------------------------------
    1        0.284   6.340   5.852  12.476
    2        0.284   6.340   5.854  12.478
    3        0.284   6.340   5.862  12.486
    4        0.284   6.340   5.852  12.475
    5        0.284   6.340   5.854  12.478
    6        0.284   6.340   5.865  12.489
    7        0.284   6.340   5.851  12.474
    8        0.284   6.340   5.853  12.477
    9        0.283   6.340   5.854  12.477
   10        0.283   6.340   5.868  12.492
   11        0.283   6.340   5.865  12.489
   12        0.283   6.340   5.857  12.480
   13        1.568   3.417   0.000   4.984
   14        1.568   3.416   0.000   4.984
   15        1.567   3.417   0.000   4.984
   16        1.568   3.418   0.000   4.985
   17        1.568   3.418   0.000   4.985
   18        1.568   3.417   0.000   4.984
   19        1.567   3.404   0.000   4.971
   20        1.567   3.404   0.000   4.971
   21        1.567   3.405   0.000   4.972
   22        1.567   3.405   0.000   4.972
   23        1.567   3.405   0.000   4.972
   24        1.567   3.405   0.000   4.972
   25        1.568   3.418   0.000   4.986
   26        1.568   3.417   0.000   4.986
   27        1.568   3.419   0.000   4.987
   28        1.568   3.420   0.000   4.988
   29        1.568   3.420   0.000   4.988
   30        1.568   3.419   0.000   4.988
--------------------------------------------------
tot         31.618 137.524  70.288 239.429
 


 magnetization (x)
 
# of ion       s       p       d       tot
------------------------------------------
    1        0.024   0.036   3.140   3.201
    2        0.024   0.036   3.137   3.198
    3        0.025   0.036   3.134   3.195
    4        0.025   0.036   3.140   3.200
    5        0.025   0.036   3.140   3.201
    6        0.025   0.036   3.132   3.192
    7        0.024   0.036   3.124   3.185
    8        0.024   0.036   3.122   3.182
    9        0.025   0.036   3.122   3.183
   10        0.025   0.036   3.116   3.177
   11        0.025   0.036   3.118   3.179
   12        0.025   0.036   3.122   3.183
   13        0.020   0.139   0.000   0.159
   14        0.020   0.139   0.000   0.159
   15        0.020   0.139   0.000   0.159
   16        0.020   0.140   0.000   0.160
   17        0.020   0.140   0.000   0.161
   18        0.020   0.139   0.000   0.159
   19        0.021   0.143   0.000   0.165
   20        0.021   0.143   0.000   0.164
   21        0.021   0.144   0.000   0.165
   22        0.021   0.144   0.000   0.165
   23        0.021   0.144   0.000   0.165
   24        0.021   0.144   0.000   0.165
   25        0.020   0.135   0.000   0.156
   26        0.020   0.135   0.000   0.155
   27        0.020   0.136   0.000   0.157
   28        0.020   0.137   0.000   0.158
   29        0.020   0.137   0.000   0.157
   30        0.020   0.137   0.000   0.157
--------------------------------------------------
tot          0.668   2.946  37.548  41.162
 
    CHARGE:  cpu time    0.7212: real time    0.7229
    FORLOC:  cpu time    0.0148: real time    0.0148
    FORNL :  cpu time    5.5593: real time    5.5730
    STRESS:  cpu time   15.9210: real time   15.9613
    FORCOR:  cpu time    0.1249: real time    0.1252
    FORHAR:  cpu time    0.0239: real time    0.0240
    MIXING:  cpu time    0.0055: real time    0.0055
    OFIELD:  cpu time    0.0001: real time    0.0001

  FORCE on cell =-STRESS in cart. coord.  units (eV):
  Direction    XX          YY          ZZ          XY          YZ          ZX
  --------------------------------------------------------------------------------------
  Alpha Z  1362.55286  1362.55286  1362.55286
  Ewald   -8201.75422 -8201.75360 -9109.63806     0.00000     0.00002    -0.00000
  Hartree  3503.90126  3503.90112  2999.89494    -0.00000     0.00001    -0.00000
  E(xc)   -1615.78065 -1615.78068 -1617.34578    -0.00003     0.00000    -0.00000
  Local    -165.35471  -165.35474  1230.52254    -0.00030    -0.00003     0.00000
  n-local  -743.59231  -742.48411  -745.07669    -4.17010     0.49344     0.11556
  augment  1844.77382  1844.77383  1846.68100     0.00029     0.00000    -0.00000
  Kinetic  4006.97687  4009.07575  4024.82734     7.65072    -1.98568    -5.04557
  Fock        0.00000     0.00000     0.00000     0.00000     0.00000     0.00000
  -------------------------------------------------------------------------------------
  Total      -6.67332    -6.67332    -7.58185     0.00000     0.00000    -0.00000
  in kB     -35.39543   -35.39542   -40.21429     0.00000     0.00000    -0.00000
  external pressure =      -37.00 kB  Pullay stress =        0.00 kB


 VOLUME and BASIS-vectors are now :
 -----------------------------------------------------------------------------
  energy-cutoff  :      680.00
  volume of cell :      302.07
      direct lattice vectors                 reciprocal lattice vectors
     5.035100000  0.000000000  0.000000000     0.198605787  0.114665118  0.000000000
    -2.517550000  4.360524000  0.000000000     0.000000000  0.229330236  0.000000000
     0.000000000  0.000000000 13.758100000     0.000000000  0.000000000  0.072684455

  length of vectors
     5.035100000  5.035099558 13.758100000     0.229330216  0.229330236  0.072684455


 FORCES acting on ions
    electron-ion (+dipol)            ewald-force                    non-local-force                 convergence-correction
 -----------------------------------------------------------------------------------------------
   0.156E-03 0.366E-03 -.126E+03   -.101E-02 0.523E-03 0.128E+03   -.173E-17 -.217E-17 -.289E+01   -.504E-08 0.306E-08 -.121E-04
   -.402E-03 0.580E-03 0.126E+03   0.101E-02 -.523E-03 -.128E+03   -.347E-17 0.260E-17 0.289E+01   0.699E-08 -.371E-08 0.121E-04
   -.135E-03 0.533E-03 -.126E+03   0.314E-02 -.187E-02 0.128E+03   0.347E-17 -.390E-17 -.289E+01   0.124E-06 -.721E-07 -.589E-05
   -.328E-03 0.645E-03 -.126E+03   -.220E-02 0.121E-02 0.128E+03   0.260E-17 0.000E+00 -.289E+01   -.117E-06 0.671E-07 -.378E-05
   0.815E-04 0.300E-03 0.126E+03   0.220E-02 -.121E-02 -.128E+03   0.434E-18 0.304E-17 0.289E+01   0.119E-06 -.678E-07 0.378E-05
   -.111E-03 0.412E-03 0.126E+03   -.314E-02 0.187E-02 -.128E+03   -.434E-18 0.434E-18 0.289E+01   -.122E-06 0.714E-07 0.589E-05
   0.566E-03 -.105E-02 0.126E+03   0.964E-03 -.523E-03 -.128E+03   0.867E-17 0.260E-17 0.289E+01   0.773E-08 -.488E-08 0.121E-04
   0.104E-02 -.127E-02 -.126E+03   -.964E-03 0.523E-03 0.128E+03   0.867E-18 -.130E-17 -.289E+01   -.437E-08 0.180E-08 -.121E-04
   0.105E-02 -.133E-02 0.126E+03   0.215E-02 -.121E-02 -.128E+03   -.651E-18 0.304E-17 0.289E+01   0.119E-06 -.696E-07 0.378E-05
   0.750E-03 -.110E-02 -.126E+03   0.319E-02 -.187E-02 0.128E+03   -.325E-17 0.000E+00 -.289E+01   0.125E-06 -.726E-07 -.589E-05
   0.856E-03 -.121E-02 0.126E+03   -.319E-02 0.187E-02 -.128E+03   0.282E-17 0.304E-17 0.289E+01   -.122E-06 0.696E-07 0.589E-05
   0.557E-03 -.988E-03 -.126E+03   -.215E-02 0.121E-02 0.128E+03   -.173E-17 -.217E-17 -.289E+01   -.116E-06 0.665E-07 -.378E-05
   -.424E+02 -.134E-02 0.216E-03   0.418E+02 0.106E-02 -.470E-03   0.676E+00 -.623E-18 -.325E-18   -.230E-04 0.289E-07 -.271E-08
   0.424E+02 -.859E-04 -.337E-03   -.418E+02 -.106E-02 0.470E-03   -.676E+00 0.271E-18 0.108E-17   0.230E-04 -.311E-07 0.125E-08
   -.424E+02 -.319E-02 -.584E-02   0.418E+02 0.570E-03 -.997E-03   0.676E+00 -.266E-17 0.157E-17   -.229E-04 -.243E-07 -.187E-05
   -.424E+02 0.239E-02 0.544E-02   0.418E+02 -.163E-02 0.147E-02   0.676E+00 0.596E-18 0.314E-17   -.229E-04 -.782E-08 0.187E-05
   0.424E+02 -.382E-02 -.557E-02   -.418E+02 0.163E-02 -.147E-02   -.676E+00 0.508E-18 0.954E-17   0.229E-04 0.568E-08 -.187E-05
   0.424E+02 0.177E-02 0.572E-02   -.418E+02 -.570E-03 0.997E-03   -.676E+00 0.173E-17 0.282E-17   0.229E-04 0.222E-07 0.186E-05
   0.212E+02 -.367E+02 -.308E-03   -.209E+02 0.362E+02 0.438E-03   -.338E+00 0.586E+00 -.520E-17   0.115E-04 -.199E-04 0.123E-08
   -.212E+02 0.367E+02 0.194E-03   0.209E+02 -.362E+02 -.438E-03   0.338E+00 -.586E+00 -.173E-17   -.115E-04 0.199E-04 -.267E-08
   0.212E+02 -.367E+02 -.554E-02   -.209E+02 0.362E+02 -.150E-02   -.338E+00 0.586E+00 -.347E-17   0.115E-04 -.198E-04 -.187E-05
   0.212E+02 -.367E+02 0.575E-02   -.209E+02 0.362E+02 0.964E-03   -.338E+00 0.586E+00 0.000E+00   0.115E-04 -.199E-04 0.186E-05
   -.212E+02 0.367E+02 -.586E-02   0.209E+02 -.362E+02 -.964E-03   0.338E+00 -.586E+00 -.867E-18   -.115E-04 0.199E-04 -.187E-05
   -.212E+02 0.367E+02 0.542E-02   0.209E+02 -.362E+02 0.150E-02   0.338E+00 -.586E+00 -.260E-17   -.115E-04 0.198E-04 0.187E-05
   0.212E+02 0.367E+02 0.939E-04   -.209E+02 -.362E+02 0.322E-04   -.338E+00 -.586E+00 0.564E-17   0.115E-04 0.198E-04 0.146E-08
   -.212E+02 -.367E+02 0.144E-03   0.209E+02 0.362E+02 -.322E-04   0.338E+00 0.586E+00 -.130E-17   -.115E-04 -.198E-04 0.140E-08
   0.212E+02 0.367E+02 -.409E-02   -.209E+02 -.362E+02 -.303E-02   -.338E+00 -.586E+00 0.564E-17   0.115E-04 0.199E-04 -.187E-05
   -.212E+02 -.367E+02 -.404E-02   0.209E+02 0.362E+02 -.310E-02   0.338E+00 0.586E+00 -.347E-17   -.114E-04 -.199E-04 -.187E-05
   0.212E+02 0.367E+02 0.427E-02   -.209E+02 -.362E+02 0.310E-02   -.338E+00 -.586E+00 0.954E-17   0.114E-04 0.199E-04 0.187E-05
   -.212E+02 -.367E+02 0.432E-02   0.209E+02 0.362E+02 0.303E-02   0.338E+00 0.586E+00 -.477E-17   -.115E-04 -.199E-04 0.187E-05
 -----------------------------------------------------------------------------------------------
   0.150E-01 -.165E-01 -.111E-04   -.995E-13 -.995E-13 -.192E-12   0.278E-15 0.000E+00 0.459E-15   0.257E-07 -.204E-07 -.206E-09
 
 
 POSITION                                       TOTAL-FORCE (eV/Angst)
 -----------------------------------------------------------------------------------
      0.00000      0.00000      4.88853         0.000000     -0.000000     -0.926407
      0.00000      0.00000      8.86957         0.000000     -0.000000      0.926407
     -0.00000      2.90702      0.30250         0.000000     -0.000000     -0.926407
      2.51755      1.45351      9.47456         0.000000     -0.000000     -0.926407
     -0.00000      2.90702      4.28354         0.000000     -0.000000      0.926407
      2.51755      1.45351     13.45560         0.000000     -0.000000      0.926407
      0.00000      0.00000      1.99052         0.000000     -0.000000      0.926407
      0.00000      0.00000     11.76758         0.000000     -0.000000     -0.926407
     -0.00000      2.90702     11.16259         0.000000     -0.000000      0.926407
     -0.00000      2.90702      7.18155         0.000000     -0.000000     -0.926407
      2.51755      1.45351      6.57655         0.000000     -0.000000      0.926407
      2.51755      1.45351      2.59551         0.000000     -0.000000     -0.926407
      1.54165      0.00000      3.43953         0.085505     -0.000000     -0.000000
      3.49345      0.00000     10.31858        -0.085505     -0.000000     -0.000000
      1.54164      2.90702     12.61160         0.085505     -0.000000     -0.000000
      4.05920      1.45351      8.02555         0.085505     -0.000000      0.000000
     -1.54165      2.90702      5.73255        -0.085505     -0.000000     -0.000000
      0.97591      1.45351      1.14650        -0.085505     -0.000000      0.000000
     -0.77082      1.33511      3.43953        -0.042753      0.074050     -0.000000
     -1.74673      3.02542     10.31858         0.042753     -0.074050     -0.000000
     -0.77083      4.24212     12.61160        -0.042753      0.074050     -0.000000
      1.74673      2.78861      8.02555        -0.042753      0.074050      0.000000
      0.77082      1.57191      5.73255         0.042753     -0.074050     -0.000000
      3.28838      0.11840      1.14650         0.042753     -0.074050     -0.000000
      1.74673      3.02542      3.43953        -0.042753     -0.074050     -0.000000
      0.77082      1.33511     10.31858         0.042753      0.074050     -0.000000
     -0.77083      1.57191     12.61160        -0.042753     -0.074050     -0.000000
      0.77082      4.24212      5.73255         0.042753      0.074050     -0.000000
      1.74673      0.11840      8.02555        -0.042753     -0.074050      0.000000
      3.28838      2.78861      1.14650         0.042753      0.074050      0.000000
 -----------------------------------------------------------------------------------
    total drift:                                0.014969     -0.016521     -0.000011


--------------------------------------------------------------------------------------------------------



  FREE ENERGIE OF THE ION-ELECTRON SYSTEM (eV)
  ---------------------------------------------------
  free  energy   TOTEN  =      -221.43497850 eV

  energy  without entropy=     -221.43497850  energy(sigma->0) =     -221.43497850
 


--------------------------------------------------------------------------------------------------------


    POTLOK:  cpu time    0.1306: real time    0.1310


--------------------------------------------------------------------------------------------------------


     LOOP+:  cpu time  550.9140: real time  552.4053
    4ORBIT:  cpu time    0.0000: real time    0.0000
 


 total charge     
 
# of ion       s       p       d       tot
------------------------------------------
    1        0.284   6.340   5.852  12.476
    2        0.284   6.340   5.854  12.478
    3        0.284   6.340   5.862  12.486
    4        0.284   6.340   5.852  12.475
    5        0.284   6.340   5.854  12.478
    6        0.284   6.340   5.865  12.489
    7        0.284   6.340   5.851  12.474
    8        0.284   6.340   5.853  12.477
    9        0.283   6.340   5.854  12.477
   10        0.283   6.340   5.868  12.492
   11        0.283   6.340   5.865  12.489
   12        0.283   6.340   5.857  12.480
   13        1.568   3.417   0.000   4.984
   14        1.568   3.416   0.000   4.984
   15        1.567   3.417   0.000   4.984
   16        1.568   3.418   0.000   4.985
   17        1.568   3.418   0.000   4.985
   18        1.568   3.417   0.000   4.984
   19        1.567   3.404   0.000   4.971
   20        1.567   3.404   0.000   4.971
   21        1.567   3.405   0.000   4.972
   22        1.567   3.405   0.000   4.972
   23        1.567   3.405   0.000   4.972
   24        1.567   3.405   0.000   4.972
   25        1.568   3.418   0.000   4.986
   26        1.568   3.417   0.000   4.986
   27        1.568   3.419   0.000   4.987
   28        1.568   3.420   0.000   4.988
   29        1.568   3.420   0.000   4.988
   30        1.568   3.419   0.000   4.988
--------------------------------------------------
tot         31.618 137.524  70.288 239.429
 


 magnetization (x)
 
# of ion       s       p       d       tot
------------------------------------------
    1        0.024   0.036   3.140   3.201
    2        0.024   0.036   3.137   3.198
    3        0.025   0.036   3.134   3.195
    4        0.025   0.036   3.140   3.200
    5        0.025   0.036   3.140   3.201
    6        0.025   0.036   3.132   3.192
    7        0.024   0.036   3.124   3.185
    8        0.024   0.036   3.122   3.182
    9        0.025   0.036   3.122   3.183
   10        0.025   0.036   3.116   3.177
   11        0.025   0.036   3.118   3.179
   12        0.025   0.036   3.122   3.183
   13        0.020   0.139   0.000   0.159
   14        0.020   0.139   0.000   0.159
   15        0.020   0.139   0.000   0.159
   16        0.020   0.140   0.000   0.160
   17        0.020   0.140   0.000   0.161
   18        0.020   0.139   0.000   0.159
   19        0.021   0.143   0.000   0.165
   20        0.021   0.143   0.000   0.164
   21        0.021   0.144   0.000   0.165
   22        0.021   0.144   0.000   0.165
   23        0.021   0.144   0.000   0.165
   24        0.021   0.144   0.000   0.165
   25        0.020   0.135   0.000   0.156
   26        0.020   0.135   0.000   0.155
   27        0.020   0.136   0.000   0.157
   28        0.020   0.137   0.000   0.158
   29        0.020   0.137   0.000   0.157
   30        0.020   0.137   0.000   0.157
--------------------------------------------------
tot          0.668   2.946  37.548  41.162
 
 BZINTS: Fermi energy:  6.182327;276.000000 electrons
         Band energy:***********;  BLOECHL correction: -0.033001

 total amount of memory used by VASP MPI-rank0   108340. kBytes
=======================================================================

   base      :      30000. kBytes
   nonlr-proj:      12080. kBytes
   fftplans  :       5154. kBytes
   grid      :      12969. kBytes
   one-center:        248. kBytes
   wavefun   :      47889. kBytes
 
  
  
 General timing and accounting informations for this job:
 ========================================================
  
                  Total CPU time used (sec):      560.018
                            User time (sec):      557.465
                          System time (sec):        2.554
                         Elapsed time (sec):      561.608
  
                   Maximum memory used (kb):      157384.
                   Average memory used (kb):           0.
  
                          Minor page faults:        84962
                          Major page faults:            0
                 Voluntary context switches:          322
