       N       E                     dE             d eps       ncg     rms          rms(c)
DAV:   1     0.151788570475E+03    0.15179E+03   -0.96088E+03 33912   0.231E+03
DAV:   2     0.981980316462E+00   -0.15081E+03   -0.13409E+03 32716   0.269E+02
DAV:   3    -0.152779391306E+02   -0.16260E+02   -0.15749E+02 34240   0.962E+01
DAV:   4    -0.161710271020E+02   -0.89309E+00   -0.88016E+00 47696   0.203E+01
DAV:   5    -0.162157435163E+02   -0.44716E-01   -0.44559E-01 43264   0.363E+00    0.129E+01
DAV:   6    -0.201932371762E+02   -0.39775E+01   -0.45864E+01 43636   0.675E+01    0.176E+01
DAV:   7    -0.190884991515E+02    0.11047E+01   -0.28226E+00 35068   0.388E+01    0.653E+00
DAV:   8    -0.187628373925E+02    0.32566E+00   -0.14171E+00 50064   0.141E+01    0.250E+00
DAV:   9    -0.188363587939E+02   -0.73521E-01   -0.13639E+00 39480   0.988E+00    0.348E+00
DAV:  10    -0.187479958331E+02    0.88363E-01   -0.82021E-01 38140   0.740E+00    0.106E+00
DAV:  11    -0.187637399623E+02   -0.15744E-01   -0.21774E-02 46028   0.112E+00    0.589E-01
DAV:  12    -0.187616280034E+02    0.21120E-02   -0.61120E-03 44980   0.746E-01    0.539E-01
DAV:  13    -0.187596072965E+02    0.20207E-02   -0.42455E-03 44276   0.546E-01    0.305E-01
DAV:  14    -0.187591012155E+02    0.50608E-03   -0.15191E-03 47920   0.325E-01    0.185E-01
DAV:  15    -0.187588939960E+02    0.20722E-03   -0.26006E-03 38556   0.430E-01    0.988E-03
DAV:  16    -0.187589041644E+02   -0.10168E-04   -0.11672E-04 44572   0.550E-02    0.950E-03
DAV:  17    -0.187589044906E+02   -0.32623E-06   -0.35619E-06 38556   0.914E-03
   1 F= -.18758904E+02 E0= -.18758904E+02  d E =0.000000E+00  mag=     6.9905
