 vasp.5.4.4.18Apr17-6-g9f103f2a35 (build Apr 28 2018 00:24:27) complex          
  
 executed on             LinuxIFC date 2021.04.17  17:40:09
 running on    8 total cores
 distrk:  each k-point on    8 cores,    1 groups
 distr:  one band on NCORES_PER_BAND=   4 cores,    2 groups


--------------------------------------------------------------------------------------------------------


 INCAR:
 POTCAR:    PAW_PBE Eu 23Dec2003                  
 POTCAR:    PAW_PBE S 06Sep2000                   
 POTCAR:    PAW_PBE Eu 23Dec2003                  
   VRHFIN =Eu : [core=Kr4d]                                                     
   LEXCH  = PE                                                                  
   EATOM  =  2619.8085 eV,  192.5505 Ry                                         
                                                                                
   TITEL  = PAW_PBE Eu 23Dec2003                                                
   LULTRA =        F    use ultrasoft PP ?                                      
   IUNSCR =        1    unscreen: 0-lin 1-nonlin 2-no                           
   RPACOR =    2.300    partial core radius                                     
   POMASS =  151.965; ZVAL   =   17.000    mass and valenz                      
   RCORE  =    2.800    outmost cutoff radius                                   
   RWIGS  =    2.800; RWIGS  =    1.482    wigner-seitz radius (au A)           
   ENMAX  =  249.668; ENMIN  =  187.251 eV                                      
   RCLOC  =    2.308    cutoff for local pot                                    
   LCOR   =        T    correct aug charges                                     
   LPAW   =        T    paw PP                                                  
   EAUG   =  549.628                                                            
   DEXC   =    0.000                                                            
   RMAX   =    2.870    core radius for proj-oper                               
   RAUG   =    1.300    factor for augmentation sphere                          
   RDEP   =    2.887    radius for radial grids                                 
   RDEPT  =    2.221    core radius for aug-charge                              
                                                                                
   Atomic configuration                                                         
   14 entries                                                                   
     n  l   j            E        occ.                                          
     1  0  0.50    -48354.7667   2.0000                                         
     2  0  0.50     -7939.6472   2.0000                                         
     2  1  1.50     -7072.6637   6.0000                                         
     3  0  0.50     -1747.1875   2.0000                                         
     3  1  1.50     -1477.5221   6.0000                                         
     3  2  2.50     -1117.4686  10.0000                                         
     4  0  0.50      -346.8682   2.0000                                         
     4  1  1.50      -258.1962   6.0000                                         
     4  2  2.50      -134.7724  10.0000                                         
     5  0  0.50       -44.6510   2.0000                                         
     6  0  0.50        -3.6227   2.0000                                         
     5  1  1.50       -23.7639   6.0000                                         
     5  2  2.50        -1.3130   0.0000                                         
     4  3  2.50        -2.7310   7.0000                                         
   Description                                                                  
     l       E           TYP  RCUT    TYP  RCUT                                 
     0    -44.6510453     23  2.400                                             
     0     -3.6226685     23  2.400                                             
     1    -23.7638687     23  2.400                                             
     1     27.2116520     23  2.400                                             
     2     -1.3129622     23  2.500                                             
     2     13.6058260     23  2.500                                             
     3     -2.7309948     23  2.800                                             
     3     -3.4014565     23  2.800                                             
  local pseudopotential read in
  partial core-charges read in
  partial kinetic energy density read in
  atomic valenz-charges read in
  non local Contribution for L=           0  read in
    real space projection operators read in
  non local Contribution for L=           0  read in
    real space projection operators read in
  non local Contribution for L=           1  read in
    real space projection operators read in
  non local Contribution for L=           1  read in
    real space projection operators read in
  non local Contribution for L=           2  read in
    real space projection operators read in
  non local Contribution for L=           2  read in
    real space projection operators read in
  non local Contribution for L=           3  read in
    real space projection operators read in
  non local Contribution for L=           3  read in
    real space projection operators read in
    PAW grid and wavefunctions read in
 
   number of l-projection  operators is LMAX  =           8
   number of lm-projection operators is LMMAX =          32
 
 POTCAR:    PAW_PBE S 06Sep2000                   
   VRHFIN =S : s2p4                                                             
   LEXCH  = PE                                                                  
   EATOM  =   276.8230 eV,   20.3459 Ry                                         
                                                                                
   TITEL  = PAW_PBE S 06Sep2000                                                 
   LULTRA =        F    use ultrasoft PP ?                                      
   IUNSCR =        1    unscreen: 0-lin 1-nonlin 2-no                           
   RPACOR =    1.500    partial core radius                                     
   POMASS =   32.066; ZVAL   =    6.000    mass and valenz                      
   RCORE  =    1.900    outmost cutoff radius                                   
   RWIGS  =    2.200; RWIGS  =    1.164    wigner-seitz radius (au A)           
   ENMAX  =  258.689; ENMIN  =  194.016 eV                                      
   ICORE  =        2    local potential                                         
   LCOR   =        T    correct aug charges                                     
   LPAW   =        T    paw PP                                                  
   EAUG   =  335.092                                                            
   DEXC   =    0.000                                                            
   RMAX   =    1.942    core radius for proj-oper                               
   RAUG   =    1.300    factor for augmentation sphere                          
   RDEP   =    1.954    radius for radial grids                                 
   RDEPT  =    1.744    core radius for aug-charge                              
                                                                                
   Atomic configuration                                                         
    6 entries                                                                   
     n  l   j            E        occ.                                          
     1  0  0.50     -2405.8406   2.0000                                         
     2  0  0.50      -211.7007   2.0000                                         
     2  1  1.50      -156.4958   6.0000                                         
     3  0  0.50       -17.2562   2.0000                                         
     3  1  0.50        -7.0085   4.0000                                         
     3  2  1.50        -6.8029   0.0000                                         
   Description                                                                  
     l       E           TYP  RCUT    TYP  RCUT                                 
     0    -17.2561641     23  1.900                                             
     0    -15.8743224     23  1.900                                             
     1     -7.0085400     23  1.900                                             
     1     -2.7779785     23  1.900                                             
     2     -6.8029130     23  1.900                                             
  local pseudopotential read in
  partial core-charges read in
  partial kinetic energy density read in
  atomic valenz-charges read in
  non local Contribution for L=           0  read in
    real space projection operators read in
  non local Contribution for L=           0  read in
    real space projection operators read in
  non local Contribution for L=           1  read in
    real space projection operators read in
  non local Contribution for L=           1  read in
    real space projection operators read in
    PAW grid and wavefunctions read in
 
   number of l-projection  operators is LMAX  =           4
   number of lm-projection operators is LMMAX =           8
 

 ----------------------------------------------------------------------------- 
|                                                                             |
|  ADVICE TO THIS USER RUNNING 'VASP/VAMP'   (HEAR YOUR MASTER'S VOICE ...):  |
|                                                                             |
|      You have a (more or less) 'small supercell' and for smaller cells      |
|      it is recommended  to use the reciprocal-space projection scheme!      |
|      The real space optimization is not  efficient for small cells and it   |
|      is also less accurate ...                                              |
|      Therefore set LREAL=.FALSE. in the  INCAR file                         |
|                                                                             |
 ----------------------------------------------------------------------------- 

 Optimization of the real space projectors (new method)

 maximal supplied QI-value         = 13.42
 optimisation between [QCUT,QGAM] = [ 11.67, 23.35] = [ 38.16,152.62] Ry 
 Optimized for a Real-space Cutoff    1.63 Angstroem

   l    n(q)    QCUT    max X(q) W(low)/X(q) W(high)/X(q)  e(spline) 
   0     11    11.673    10.400    0.14E-04    0.18E-05    0.24E-07
   0     11    11.673    10.768    0.21E-04    0.32E-05    0.49E-07
   1     11    11.673     4.094    0.40E-05    0.13E-04    0.93E-07
   1     11    11.673     4.009    0.11E-04    0.46E-04    0.33E-06
   2     10    11.673    29.030    0.79E-04    0.60E-04    0.70E-06
   2     10    11.673    19.941    0.80E-04    0.60E-04    0.71E-06
   3     10    11.673    88.889    0.23E-03    0.29E-03    0.30E-06
   3     10    11.673    76.102    0.23E-03    0.30E-03    0.30E-06
 Optimization of the real space projectors (new method)

 maximal supplied QI-value         = 19.84
 optimisation between [QCUT,QGAM] = [ 11.51, 23.22] = [ 37.09,150.92] Ry 
 Optimized for a Real-space Cutoff    1.21 Angstroem

   l    n(q)    QCUT    max X(q) W(low)/X(q) W(high)/X(q)  e(spline) 
   0      8    11.508   187.594    0.96E-04    0.18E-03    0.54E-07
   0      8    11.508   164.243    0.96E-04    0.18E-03    0.54E-07
   1      8    11.508    67.533    0.18E-03    0.65E-04    0.94E-07
   1      8    11.508    50.729    0.18E-03    0.63E-04    0.92E-07
  PAW_PBE Eu 23Dec2003                  :
 energy of atom  1       EATOM=-2619.8085
 kinetic energy error for atom=    0.0015 (will be added to EATOM!!)
  PAW_PBE S 06Sep2000                   :
 energy of atom  2       EATOM= -276.8230
 kinetic energy error for atom=    0.0016 (will be added to EATOM!!)
 
 
 POSCAR: Eu1 S1                                  
  positions in direct lattice
  velocities in cartesian coordinates
 exchange correlation table for  LEXCH =        8
   RHO(1)=    0.500       N(1)  =     2000
   RHO(2)=  100.500       N(2)  =     4000
 


--------------------------------------------------------------------------------------------------------


 ion  position               nearest neighbor table
   1  0.000  0.000  0.000-   2 2.92   2 2.92   2 2.92   2 2.92   2 2.92   2 2.92
   2  0.500  0.500  0.500-   1 2.92   1 2.92   1 2.92   1 2.92   1 2.92   1 2.92
 
  LATTYP: Found a base centered monoclinic cell.
 ALAT       =     7.1584442575
 B/A-ratio  =     0.5773503084
 C/A-ratio  =     1.7320508726
 COS(beta)  =    -0.8333333051
  
  Lattice vectors:
  
 A1 = (   2.0664650000,   1.1930740000,   3.3745230000)
 A2 = (  -2.0664650000,   1.1930740000,   3.3745230000)
 A3 = (   0.0000000000,  -7.1584450000, -10.1235690000)


Analysis of symmetry for initial positions (statically):
=====================================================================
 Subroutine PRICEL returns:
 Original cell was already a primitive cell.
 

 Routine SETGRP: Setting up the symmetry group for a 
 base centered monoclinic supercell.


 Subroutine GETGRP returns: Found  4 space group operations
 (whereof  4 operations were pure point group operations)
 out of a pool of  4 trial point group operations.


The static configuration has the point symmetry C_2h.


Analysis of symmetry for dynamics (positions and initial velocities):
=====================================================================
 Subroutine PRICEL returns:
 Original cell was already a primitive cell.
 

 Routine SETGRP: Setting up the symmetry group for a 
 base centered monoclinic supercell.


 Subroutine GETGRP returns: Found  4 space group operations
 (whereof  4 operations were pure point group operations)
 out of a pool of  4 trial point group operations.


The dynamic configuration has the point symmetry C_2h.


Analysis of structural, dynamic, and magnetic symmetry:
=====================================================================
 Subroutine PRICEL returns:
 Original cell was already a primitive cell.
 

 Routine SETGRP: Setting up the symmetry group for a 
 base centered monoclinic supercell.


 Subroutine GETGRP returns: Found  4 space group operations
 (whereof  4 operations were pure point group operations)
 out of a pool of  4 trial point group operations.


The magnetic configuration has the point symmetry C_2h.


 Subroutine INISYM returns: Found  4 space group operations
 (whereof  4 operations are pure point group operations),
 and found     1 'primitive' translations

 
 
 KPOINTS: pymatgen v2019.10.16 with grid density =

Automatic generation of k-mesh.
Space group operators:
 irot       det(A)        alpha          n_x          n_y          n_z        tau_x        tau_y        tau_z
    1     1.000000     0.000000     1.000000     0.000000     0.000000     0.000000     0.000000     0.000000
    2    -1.000000     0.000000     1.000000     0.000000     0.000000     0.000000     0.000000     0.000000
    3     1.000000   180.000000     1.000000     0.000000     0.000000     0.000000     0.000000     0.000000
    4    -1.000000   180.000000     1.000000     0.000000     0.000000     0.000000     0.000000     0.000000
 
 Subroutine IBZKPT returns following result:
 ===========================================
 
 Found    366 irreducible k-points:
 
 Following reciprocal coordinates:
            Coordinates               Weight
  0.000000  0.000000  0.000000      1.000000
  0.090909  0.000000  0.000000      4.000000
  0.181818  0.000000  0.000000      4.000000
  0.272727 -0.000000 -0.000000      4.000000
  0.363636  0.000000  0.000000      4.000000
  0.454545  0.000000  0.000000      4.000000
  0.000000  0.090909  0.000000      2.000000
  0.090909  0.090909  0.000000      4.000000
  0.181818  0.090909  0.000000      4.000000
  0.272727  0.090909 -0.000000      4.000000
  0.363636  0.090909  0.000000      4.000000
  0.454545  0.090909  0.000000      4.000000
 -0.454545  0.090909 -0.000000      4.000000
 -0.363636  0.090909 -0.000000      4.000000
 -0.272727  0.090909  0.000000      4.000000
 -0.181818  0.090909 -0.000000      4.000000
 -0.090909  0.090909 -0.000000      4.000000
  0.000000  0.181818  0.000000      2.000000
  0.090909  0.181818  0.000000      4.000000
  0.181818  0.181818  0.000000      4.000000
  0.272727  0.181818 -0.000000      4.000000
  0.363636  0.181818  0.000000      4.000000
  0.454545  0.181818  0.000000      4.000000
 -0.454545  0.181818 -0.000000      4.000000
 -0.363636  0.181818 -0.000000      4.000000
 -0.272727  0.181818  0.000000      4.000000
 -0.181818  0.181818 -0.000000      4.000000
 -0.090909  0.181818 -0.000000      4.000000
  0.000000  0.272727  0.000000      2.000000
  0.090909  0.272727  0.000000      4.000000
  0.181818  0.272727  0.000000      4.000000
  0.272727  0.272727  0.000000      4.000000
  0.363636  0.272727  0.000000      4.000000
  0.454545  0.272727  0.000000      4.000000
 -0.454545  0.272727 -0.000000      4.000000
 -0.363636  0.272727 -0.000000      4.000000
 -0.272727  0.272727  0.000000      4.000000
 -0.181818  0.272727 -0.000000      4.000000
 -0.090909  0.272727 -0.000000      4.000000
  0.000000  0.363636  0.000000      2.000000
  0.090909  0.363636  0.000000      4.000000
  0.181818  0.363636  0.000000      4.000000
  0.272727  0.363636  0.000000      4.000000
  0.363636  0.363636  0.000000      4.000000
  0.454545  0.363636  0.000000      4.000000
 -0.454545  0.363636 -0.000000      4.000000
 -0.363636  0.363636 -0.000000      4.000000
 -0.272727  0.363636  0.000000      4.000000
 -0.181818  0.363636 -0.000000      4.000000
 -0.090909  0.363636 -0.000000      4.000000
  0.000000  0.454545  0.000000      2.000000
  0.090909  0.454545  0.000000      4.000000
  0.181818  0.454545 -0.000000      4.000000
  0.272727  0.454545 -0.000000      4.000000
  0.363636  0.454545  0.000000      4.000000
  0.454545  0.454545  0.000000      4.000000
 -0.454545  0.454545 -0.000000      4.000000
 -0.363636  0.454545 -0.000000      4.000000
 -0.272727  0.454545  0.000000      4.000000
 -0.181818  0.454545 -0.000000      4.000000
 -0.090909  0.454545 -0.000000      4.000000
  0.000000  0.000000  0.090909      2.000000
  0.181818  0.000000  0.090909      4.000000
  0.272727 -0.000000  0.090909      4.000000
  0.363636  0.000000  0.090909      4.000000
  0.454545  0.000000  0.090909      4.000000
 -0.454545 -0.000000  0.090909      4.000000
 -0.363636  0.000000  0.090909      4.000000
 -0.272727  0.000000  0.090909      4.000000
 -0.181818  0.000000  0.090909      4.000000
 -0.090909  0.000000  0.090909      4.000000
  0.000000  0.090909  0.090909      2.000000
  0.181818  0.090909  0.090909      2.000000
  0.272727  0.090909  0.090909      4.000000
  0.363636  0.090909  0.090909      4.000000
  0.454545  0.090909  0.090909      4.000000
 -0.454545  0.090909  0.090909      4.000000
 -0.363636  0.090909  0.090909      4.000000
 -0.272727  0.090909  0.090909      4.000000
 -0.181818  0.090909  0.090909      4.000000
 -0.090909  0.090909  0.090909      4.000000
  0.000000  0.181818  0.090909      2.000000
  0.272727  0.181818  0.090909      4.000000
  0.363636  0.181818  0.090909      4.000000
  0.454545  0.181818  0.090909      4.000000
 -0.454545  0.181818  0.090909      4.000000
 -0.363636  0.181818  0.090909      4.000000
 -0.272727  0.181818  0.090909      4.000000
 -0.181818  0.181818  0.090909      4.000000
 -0.090909  0.181818  0.090909      4.000000
  0.000000  0.272727  0.090909      2.000000
  0.181818  0.272727  0.090909      4.000000
  0.272727  0.272727  0.090909      4.000000
  0.363636  0.272727  0.090909      4.000000
  0.454545  0.272727  0.090909      4.000000
 -0.454545  0.272727  0.090909      4.000000
 -0.363636  0.272727  0.090909      4.000000
 -0.272727  0.272727  0.090909      4.000000
 -0.181818  0.272727  0.090909      4.000000
 -0.090909  0.272727  0.090909      4.000000
  0.000000  0.363636  0.090909      2.000000
  0.181818  0.363636  0.090909      4.000000
  0.272727  0.363636  0.090909      4.000000
  0.363636  0.363636  0.090909      4.000000
  0.454545  0.363636  0.090909      4.000000
 -0.454545  0.363636  0.090909      4.000000
 -0.363636  0.363636  0.090909      4.000000
 -0.272727  0.363636  0.090909      4.000000
 -0.181818  0.363636  0.090909      4.000000
 -0.090909  0.363636  0.090909      4.000000
  0.000000  0.454545  0.090909      2.000000
  0.181818  0.454545  0.090909      4.000000
  0.272727  0.454545  0.090909      4.000000
  0.363636  0.454545  0.090909      4.000000
  0.454545  0.454545  0.090909      4.000000
 -0.454545  0.454545  0.090909      4.000000
 -0.363636  0.454545  0.090909      4.000000
 -0.272727  0.454545  0.090909      4.000000
 -0.181818  0.454545  0.090909      4.000000
 -0.090909  0.454545  0.090909      4.000000
  0.000000 -0.454545  0.090909      2.000000
  0.181818 -0.454545  0.090909      4.000000
  0.272727 -0.454545  0.090909      4.000000
  0.363636 -0.454545  0.090909      4.000000
  0.454545 -0.454545  0.090909      4.000000
 -0.454545 -0.454545  0.090909      4.000000
 -0.363636 -0.454545  0.090909      4.000000
 -0.272727 -0.454545  0.090909      4.000000
 -0.181818 -0.454545  0.090909      4.000000
 -0.090909 -0.454545  0.090909      4.000000
  0.000000 -0.363636  0.090909      2.000000
  0.272727 -0.363636  0.090909      4.000000
  0.363636 -0.363636  0.090909      4.000000
  0.454545 -0.363636  0.090909      4.000000
 -0.454545 -0.363636  0.090909      4.000000
 -0.363636 -0.363636  0.090909      4.000000
 -0.272727 -0.363636  0.090909      4.000000
 -0.181818 -0.363636  0.090909      4.000000
 -0.090909 -0.363636  0.090909      4.000000
  0.000000 -0.272727  0.090909      2.000000
  0.272727 -0.272727  0.090909      4.000000
  0.363636 -0.272727  0.090909      4.000000
  0.454545 -0.272727  0.090909      4.000000
 -0.454545 -0.272727  0.090909      4.000000
 -0.363636 -0.272727  0.090909      4.000000
 -0.272727 -0.272727  0.090909      4.000000
 -0.181818 -0.272727  0.090909      4.000000
 -0.090909 -0.272727  0.090909      4.000000
  0.000000 -0.181818  0.090909      2.000000
  0.272727 -0.181818  0.090909      4.000000
  0.363636 -0.181818  0.090909      4.000000
  0.454545 -0.181818  0.090909      4.000000
 -0.454545 -0.181818  0.090909      4.000000
 -0.363636 -0.181818  0.090909      4.000000
 -0.272727 -0.181818  0.090909      4.000000
 -0.181818 -0.181818  0.090909      4.000000
 -0.090909 -0.181818  0.090909      4.000000
  0.000000 -0.090909  0.090909      2.000000
  0.272727 -0.090909  0.090909      4.000000
  0.363636 -0.090909  0.090909      4.000000
  0.454545 -0.090909  0.090909      4.000000
 -0.454545 -0.090909  0.090909      4.000000
 -0.363636 -0.090909  0.090909      4.000000
 -0.272727 -0.090909  0.090909      4.000000
 -0.181818 -0.090909  0.090909      4.000000
 -0.090909 -0.090909  0.090909      4.000000
  0.000000  0.000000  0.181818      2.000000
  0.363636  0.000000  0.181818      4.000000
  0.454545  0.000000  0.181818      4.000000
 -0.454545 -0.000000  0.181818      4.000000
 -0.363636  0.000000  0.181818      4.000000
 -0.272727  0.000000  0.181818      4.000000
 -0.181818  0.000000  0.181818      4.000000
 -0.090909  0.000000  0.181818      4.000000
  0.000000  0.090909  0.181818      2.000000
  0.363636  0.090909  0.181818      4.000000
  0.454545  0.090909  0.181818      4.000000
 -0.454545  0.090909  0.181818      4.000000
 -0.363636  0.090909  0.181818      4.000000
 -0.272727  0.090909  0.181818      4.000000
 -0.181818  0.090909  0.181818      4.000000
 -0.090909  0.090909  0.181818      4.000000
  0.000000  0.181818  0.181818      2.000000
  0.363636  0.181818  0.181818      2.000000
  0.454545  0.181818  0.181818      4.000000
 -0.454545  0.181818  0.181818      4.000000
 -0.363636  0.181818  0.181818      4.000000
 -0.272727  0.181818  0.181818      4.000000
 -0.181818  0.181818  0.181818      4.000000
 -0.090909  0.181818  0.181818      4.000000
  0.000000  0.272727  0.181818      2.000000
  0.454545  0.272727  0.181818      4.000000
 -0.454545  0.272727  0.181818      4.000000
 -0.363636  0.272727  0.181818      4.000000
 -0.272727  0.272727  0.181818      4.000000
 -0.181818  0.272727  0.181818      4.000000
 -0.090909  0.272727  0.181818      4.000000
  0.000000  0.363636  0.181818      2.000000
  0.454545  0.363636  0.181818      4.000000
 -0.454545  0.363636  0.181818      4.000000
 -0.363636  0.363636  0.181818      4.000000
 -0.272727  0.363636  0.181818      4.000000
 -0.181818  0.363636  0.181818      4.000000
 -0.090909  0.363636  0.181818      4.000000
  0.000000  0.454545  0.181818      2.000000
  0.363636  0.454545  0.181818      4.000000
  0.454545  0.454545  0.181818      4.000000
 -0.454545  0.454545  0.181818      4.000000
 -0.363636  0.454545  0.181818      4.000000
 -0.272727  0.454545  0.181818      4.000000
 -0.181818  0.454545  0.181818      4.000000
 -0.090909  0.454545  0.181818      4.000000
  0.000000 -0.454545  0.181818      2.000000
  0.363636 -0.454545  0.181818      4.000000
  0.454545 -0.454545  0.181818      4.000000
 -0.454545 -0.454545  0.181818      4.000000
 -0.363636 -0.454545  0.181818      4.000000
 -0.272727 -0.454545  0.181818      4.000000
 -0.181818 -0.454545  0.181818      4.000000
 -0.090909 -0.454545  0.181818      4.000000
  0.000000 -0.363636  0.181818      2.000000
  0.363636 -0.363636  0.181818      4.000000
  0.454545 -0.363636  0.181818      4.000000
 -0.454545 -0.363636  0.181818      4.000000
 -0.363636 -0.363636  0.181818      4.000000
 -0.272727 -0.363636  0.181818      4.000000
 -0.181818 -0.363636  0.181818      4.000000
 -0.090909 -0.363636  0.181818      4.000000
  0.000000 -0.272727  0.181818      2.000000
  0.454545 -0.272727  0.181818      4.000000
 -0.454545 -0.272727  0.181818      4.000000
 -0.363636 -0.272727  0.181818      4.000000
 -0.272727 -0.272727  0.181818      4.000000
 -0.181818 -0.272727  0.181818      4.000000
 -0.090909 -0.272727  0.181818      4.000000
  0.000000 -0.181818  0.181818      2.000000
  0.454545 -0.181818  0.181818      4.000000
 -0.454545 -0.181818  0.181818      4.000000
 -0.363636 -0.181818  0.181818      4.000000
 -0.272727 -0.181818  0.181818      4.000000
 -0.181818 -0.181818  0.181818      4.000000
 -0.090909 -0.181818  0.181818      4.000000
  0.000000 -0.090909  0.181818      2.000000
  0.454545 -0.090909  0.181818      4.000000
 -0.454545 -0.090909  0.181818      4.000000
 -0.363636 -0.090909  0.181818      4.000000
 -0.272727 -0.090909  0.181818      4.000000
 -0.181818 -0.090909  0.181818      4.000000
 -0.090909 -0.090909  0.181818      4.000000
  0.000000  0.000000  0.272727      2.000000
 -0.454545 -0.000000  0.272727      4.000000
 -0.363636  0.000000  0.272727      4.000000
 -0.272727  0.000000  0.272727      4.000000
 -0.181818  0.000000  0.272727      4.000000
 -0.090909  0.000000  0.272727      4.000000
  0.000000  0.090909  0.272727      2.000000
 -0.454545  0.090909  0.272727      4.000000
 -0.363636  0.090909  0.272727      4.000000
 -0.272727  0.090909  0.272727      4.000000
 -0.181818  0.090909  0.272727      4.000000
 -0.090909  0.090909  0.272727      4.000000
  0.000000  0.181818  0.272727      2.000000
 -0.454545  0.181818  0.272727      4.000000
 -0.363636  0.181818  0.272727      4.000000
 -0.272727  0.181818  0.272727      4.000000
 -0.181818  0.181818  0.272727      4.000000
 -0.090909  0.181818  0.272727      4.000000
  0.000000  0.272727  0.272727      2.000000
 -0.454545  0.272727  0.272727      2.000000
 -0.363636  0.272727  0.272727      4.000000
 -0.272727  0.272727  0.272727      4.000000
 -0.181818  0.272727  0.272727      4.000000
 -0.090909  0.272727  0.272727      4.000000
  0.000000  0.363636  0.272727      2.000000
 -0.363636  0.363636  0.272727      4.000000
 -0.272727  0.363636  0.272727      4.000000
 -0.181818  0.363636  0.272727      4.000000
 -0.090909  0.363636  0.272727      4.000000
  0.000000  0.454545  0.272727      2.000000
 -0.363636  0.454545  0.272727      4.000000
 -0.272727  0.454545  0.272727      4.000000
 -0.181818  0.454545  0.272727      4.000000
 -0.090909  0.454545  0.272727      4.000000
  0.000000 -0.454545  0.272727      2.000000
 -0.363636 -0.454545  0.272727      4.000000
 -0.272727 -0.454545  0.272727      4.000000
 -0.181818 -0.454545  0.272727      4.000000
 -0.090909 -0.454545  0.272727      4.000000
  0.000000 -0.363636  0.272727      2.000000
 -0.454545 -0.363636  0.272727      4.000000
 -0.363636 -0.363636  0.272727      4.000000
 -0.272727 -0.363636  0.272727      4.000000
 -0.181818 -0.363636  0.272727      4.000000
 -0.090909 -0.363636  0.272727      4.000000
  0.000000 -0.272727  0.272727      2.000000
 -0.454545 -0.272727  0.272727      4.000000
 -0.363636 -0.272727  0.272727      4.000000
 -0.272727 -0.272727  0.272727      4.000000
 -0.181818 -0.272727  0.272727      4.000000
 -0.090909 -0.272727  0.272727      4.000000
  0.000000 -0.181818  0.272727      2.000000
 -0.363636 -0.181818  0.272727      4.000000
 -0.272727 -0.181818  0.272727      4.000000
 -0.181818 -0.181818  0.272727      4.000000
 -0.090909 -0.181818  0.272727      4.000000
  0.000000 -0.090909  0.272727      2.000000
 -0.363636 -0.090909  0.272727      4.000000
 -0.272727 -0.090909  0.272727      4.000000
 -0.181818 -0.090909  0.272727      4.000000
 -0.090909 -0.090909  0.272727      4.000000
  0.000000  0.000000  0.363636      2.000000
 -0.272727  0.000000  0.363636      4.000000
 -0.181818  0.000000  0.363636      4.000000
 -0.090909  0.000000  0.363636      4.000000
  0.000000  0.090909  0.363636      2.000000
 -0.272727  0.090909  0.363636      4.000000
 -0.181818  0.090909  0.363636      4.000000
 -0.090909  0.090909  0.363636      4.000000
  0.000000  0.181818  0.363636      2.000000
 -0.272727  0.181818  0.363636      4.000000
 -0.181818  0.181818  0.363636      4.000000
 -0.090909  0.181818  0.363636      4.000000
  0.000000  0.272727  0.363636      2.000000
 -0.272727  0.272727  0.363636      4.000000
 -0.181818  0.272727  0.363636      4.000000
 -0.090909  0.272727  0.363636      4.000000
  0.000000  0.363636  0.363636      2.000000
 -0.272727  0.363636  0.363636      2.000000
 -0.181818  0.363636  0.363636      4.000000
 -0.090909  0.363636  0.363636      4.000000
  0.000000  0.454545  0.363636      2.000000
 -0.181818  0.454545  0.363636      4.000000
 -0.090909  0.454545  0.363636      4.000000
  0.000000 -0.454545  0.363636      2.000000
 -0.181818 -0.454545  0.363636      4.000000
 -0.090909 -0.454545  0.363636      4.000000
  0.000000 -0.363636  0.363636      2.000000
 -0.181818 -0.363636  0.363636      4.000000
 -0.090909 -0.363636  0.363636      4.000000
  0.000000 -0.272727  0.363636      2.000000
 -0.181818 -0.272727  0.363636      4.000000
 -0.090909 -0.272727  0.363636      4.000000
  0.000000 -0.181818  0.363636      2.000000
 -0.272727 -0.181818  0.363636      4.000000
 -0.181818 -0.181818  0.363636      4.000000
 -0.090909 -0.181818  0.363636      4.000000
  0.000000 -0.090909  0.363636      2.000000
 -0.181818 -0.090909  0.363636      4.000000
 -0.090909 -0.090909  0.363636      4.000000
  0.000000  0.000000  0.454545      2.000000
 -0.090909  0.000000  0.454545      4.000000
  0.000000  0.090909  0.454545      2.000000
 -0.090909  0.090909  0.454545      4.000000
  0.000000  0.181818  0.454545      2.000000
 -0.090909  0.181818  0.454545      4.000000
  0.000000  0.272727  0.454545      2.000000
 -0.090909  0.272727  0.454545      4.000000
  0.000000  0.363636  0.454545      2.000000
 -0.090909  0.363636  0.454545      4.000000
  0.000000  0.454545  0.454545      2.000000
 -0.090909  0.454545  0.454545      2.000000
  0.000000 -0.454545  0.454545      2.000000
  0.000000 -0.363636  0.454545      2.000000
  0.000000 -0.272727  0.454545      2.000000
  0.000000 -0.181818  0.454545      2.000000
  0.000000 -0.090909  0.454545      2.000000
 
 Following cartesian coordinates:
            Coordinates               Weight
  0.000000  0.000000  0.000000      1.000000
  0.021996 -0.012700 -0.008980      4.000000
  0.043993 -0.025399 -0.017960      4.000000
  0.065989 -0.038099 -0.026940      4.000000
  0.087985 -0.050798 -0.035920      4.000000
  0.109981 -0.063498 -0.044900      4.000000
  0.000000  0.025399 -0.008980      2.000000
  0.021996  0.012700 -0.017960      4.000000
  0.043993  0.000000 -0.026940      4.000000
  0.065989 -0.012700 -0.035920      4.000000
  0.087985 -0.025399 -0.044900      4.000000
  0.109981 -0.038099 -0.053880      4.000000
 -0.109981  0.088897  0.035920      4.000000
 -0.087985  0.076197  0.026940      4.000000
 -0.065989  0.063498  0.017960      4.000000
 -0.043993  0.050798  0.008980      4.000000
 -0.021996  0.038099  0.000000      4.000000
  0.000000  0.050798 -0.017960      2.000000
  0.021996  0.038099 -0.026940      4.000000
  0.043993  0.025399 -0.035920      4.000000
  0.065989  0.012700 -0.044900      4.000000
  0.087985  0.000000 -0.053880      4.000000
  0.109981 -0.012700 -0.062860      4.000000
 -0.109981  0.114296  0.026940      4.000000
 -0.087985  0.101596  0.017960      4.000000
 -0.065989  0.088897  0.008980      4.000000
 -0.043993  0.076197  0.000000      4.000000
 -0.021996  0.063498 -0.008980      4.000000
  0.000000  0.076197 -0.026940      2.000000
  0.021996  0.063498 -0.035920      4.000000
  0.043993  0.050798 -0.044900      4.000000
  0.065989  0.038099 -0.053880      4.000000
  0.087985  0.025399 -0.062860      4.000000
  0.109981  0.012700 -0.071840      4.000000
 -0.109981  0.139695  0.017960      4.000000
 -0.087985  0.126996  0.008980      4.000000
 -0.065989  0.114296  0.000000      4.000000
 -0.043993  0.101596 -0.008980      4.000000
 -0.021996  0.088897 -0.017960      4.000000
  0.000000  0.101596 -0.035920      2.000000
  0.021996  0.088897 -0.044900      4.000000
  0.043993  0.076197 -0.053880      4.000000
  0.065989  0.063498 -0.062860      4.000000
  0.087985  0.050798 -0.071840      4.000000
  0.109981  0.038099 -0.080819      4.000000
 -0.109981  0.165094  0.008980      4.000000
 -0.087985  0.152395  0.000000      4.000000
 -0.065989  0.139695 -0.008980      4.000000
 -0.043993  0.126996 -0.017960      4.000000
 -0.021996  0.114296 -0.026940      4.000000
  0.000000  0.126996 -0.044900      2.000000
  0.021996  0.114296 -0.053880      4.000000
  0.043993  0.101596 -0.062860      4.000000
  0.065989  0.088897 -0.071840      4.000000
  0.087985  0.076197 -0.080819      4.000000
  0.109981  0.063498 -0.089799      4.000000
 -0.109981  0.190493  0.000000      4.000000
 -0.087985  0.177794 -0.008980      4.000000
 -0.065989  0.165094 -0.017960      4.000000
 -0.043993  0.152395 -0.026940      4.000000
 -0.021996  0.139695 -0.035920      4.000000
  0.000000  0.000000  0.026940      2.000000
  0.043993 -0.025399  0.008980      4.000000
  0.065989 -0.038099 -0.000000      4.000000
  0.087985 -0.050798 -0.008980      4.000000
  0.109981 -0.063498 -0.017960      4.000000
 -0.109981  0.063498  0.071840      4.000000
 -0.087985  0.050798  0.062860      4.000000
 -0.065989  0.038099  0.053880      4.000000
 -0.043993  0.025399  0.044900      4.000000
 -0.021996  0.012700  0.035920      4.000000
  0.000000  0.025399  0.017960      2.000000
  0.043993  0.000000  0.000000      2.000000
  0.065989 -0.012700 -0.008980      4.000000
  0.087985 -0.025399 -0.017960      4.000000
  0.109981 -0.038099 -0.026940      4.000000
 -0.109981  0.088897  0.062860      4.000000
 -0.087985  0.076197  0.053880      4.000000
 -0.065989  0.063498  0.044900      4.000000
 -0.043993  0.050798  0.035920      4.000000
 -0.021996  0.038099  0.026940      4.000000
  0.000000  0.050798  0.008980      2.000000
  0.065989  0.012700 -0.017960      4.000000
  0.087985  0.000000 -0.026940      4.000000
  0.109981 -0.012700 -0.035920      4.000000
 -0.109981  0.114296  0.053880      4.000000
 -0.087985  0.101596  0.044900      4.000000
 -0.065989  0.088897  0.035920      4.000000
 -0.043993  0.076197  0.026940      4.000000
 -0.021996  0.063498  0.017960      4.000000
  0.000000  0.076197  0.000000      2.000000
  0.043993  0.050798 -0.017960      4.000000
  0.065989  0.038099 -0.026940      4.000000
  0.087985  0.025399 -0.035920      4.000000
  0.109981  0.012700 -0.044900      4.000000
 -0.109981  0.139695  0.044900      4.000000
 -0.087985  0.126996  0.035920      4.000000
 -0.065989  0.114296  0.026940      4.000000
 -0.043993  0.101596  0.017960      4.000000
 -0.021996  0.088897  0.008980      4.000000
  0.000000  0.101596 -0.008980      2.000000
  0.043993  0.076197 -0.026940      4.000000
  0.065989  0.063498 -0.035920      4.000000
  0.087985  0.050798 -0.044900      4.000000
  0.109981  0.038099 -0.053880      4.000000
 -0.109981  0.165094  0.035920      4.000000
 -0.087985  0.152395  0.026940      4.000000
 -0.065989  0.139695  0.017960      4.000000
 -0.043993  0.126996  0.008980      4.000000
 -0.021996  0.114296  0.000000      4.000000
  0.000000  0.126996 -0.017960      2.000000
  0.043993  0.101596 -0.035920      4.000000
  0.065989  0.088897 -0.044900      4.000000
  0.087985  0.076197 -0.053880      4.000000
  0.109981  0.063498 -0.062860      4.000000
 -0.109981  0.190493  0.026940      4.000000
 -0.087985  0.177794  0.017960      4.000000
 -0.065989  0.165094  0.008980      4.000000
 -0.043993  0.152395  0.000000      4.000000
 -0.021996  0.139695 -0.008980      4.000000
  0.000000 -0.126996  0.071840      2.000000
  0.043993 -0.152395  0.053880      4.000000
  0.065989 -0.165094  0.044900      4.000000
  0.087985 -0.177794  0.035920      4.000000
  0.109981 -0.190493  0.026940      4.000000
 -0.109981 -0.063498  0.116739      4.000000
 -0.087985 -0.076197  0.107759      4.000000
 -0.065989 -0.088897  0.098779      4.000000
 -0.043993 -0.101596  0.089799      4.000000
 -0.021996 -0.114296  0.080819      4.000000
  0.000000 -0.101596  0.062860      2.000000
  0.065989 -0.139695  0.035920      4.000000
  0.087985 -0.152395  0.026940      4.000000
  0.109981 -0.165094  0.017960      4.000000
 -0.109981 -0.038099  0.107759      4.000000
 -0.087985 -0.050798  0.098779      4.000000
 -0.065989 -0.063498  0.089799      4.000000
 -0.043993 -0.076197  0.080819      4.000000
 -0.021996 -0.088897  0.071840      4.000000
  0.000000 -0.076197  0.053880      2.000000
  0.065989 -0.114296  0.026940      4.000000
  0.087985 -0.126996  0.017960      4.000000
  0.109981 -0.139695  0.008980      4.000000
 -0.109981 -0.012700  0.098779      4.000000
 -0.087985 -0.025399  0.089799      4.000000
 -0.065989 -0.038099  0.080819      4.000000
 -0.043993 -0.050798  0.071840      4.000000
 -0.021996 -0.063498  0.062860      4.000000
  0.000000 -0.050798  0.044900      2.000000
  0.065989 -0.088897  0.017960      4.000000
  0.087985 -0.101596  0.008980      4.000000
  0.109981 -0.114296 -0.000000      4.000000
 -0.109981  0.012700  0.089799      4.000000
 -0.087985  0.000000  0.080820      4.000000
 -0.065989 -0.012700  0.071840      4.000000
 -0.043993 -0.025399  0.062860      4.000000
 -0.021996 -0.038099  0.053880      4.000000
  0.000000 -0.025399  0.035920      2.000000
  0.065989 -0.063498  0.008980      4.000000
  0.087985 -0.076197 -0.000000      4.000000
  0.109981 -0.088897 -0.008980      4.000000
 -0.109981  0.038099  0.080820      4.000000
 -0.087985  0.025399  0.071840      4.000000
 -0.065989  0.012700  0.062860      4.000000
 -0.043993  0.000000  0.053880      4.000000
 -0.021996 -0.012700  0.044900      4.000000
  0.000000  0.000000  0.053880      2.000000
  0.087985 -0.050798  0.017960      4.000000
  0.109981 -0.063498  0.008980      4.000000
 -0.109981  0.063498  0.098779      4.000000
 -0.087985  0.050798  0.089799      4.000000
 -0.065989  0.038099  0.080820      4.000000
 -0.043993  0.025399  0.071840      4.000000
 -0.021996  0.012700  0.062860      4.000000
  0.000000  0.025399  0.044900      2.000000
  0.087985 -0.025399  0.008980      4.000000
  0.109981 -0.038099 -0.000000      4.000000
 -0.109981  0.088897  0.089799      4.000000
 -0.087985  0.076197  0.080820      4.000000
 -0.065989  0.063498  0.071840      4.000000
 -0.043993  0.050798  0.062860      4.000000
 -0.021996  0.038099  0.053880      4.000000
  0.000000  0.050798  0.035920      2.000000
  0.087985  0.000000  0.000000      2.000000
  0.109981 -0.012700 -0.008980      4.000000
 -0.109981  0.114296  0.080820      4.000000
 -0.087985  0.101596  0.071840      4.000000
 -0.065989  0.088897  0.062860      4.000000
 -0.043993  0.076197  0.053880      4.000000
 -0.021996  0.063498  0.044900      4.000000
  0.000000  0.076197  0.026940      2.000000
  0.109981  0.012700 -0.017960      4.000000
 -0.109981  0.139695  0.071840      4.000000
 -0.087985  0.126996  0.062860      4.000000
 -0.065989  0.114296  0.053880      4.000000
 -0.043993  0.101596  0.044900      4.000000
 -0.021996  0.088897  0.035920      4.000000
  0.000000  0.101596  0.017960      2.000000
  0.109981  0.038099 -0.026940      4.000000
 -0.109981  0.165094  0.062860      4.000000
 -0.087985  0.152395  0.053880      4.000000
 -0.065989  0.139695  0.044900      4.000000
 -0.043993  0.126996  0.035920      4.000000
 -0.021996  0.114296  0.026940      4.000000
  0.000000  0.126996  0.008980      2.000000
  0.087985  0.076197 -0.026940      4.000000
  0.109981  0.063498 -0.035920      4.000000
 -0.109981  0.190493  0.053880      4.000000
 -0.087985  0.177794  0.044900      4.000000
 -0.065989  0.165094  0.035920      4.000000
 -0.043993  0.152395  0.026940      4.000000
 -0.021996  0.139695  0.017960      4.000000
  0.000000 -0.126996  0.098779      2.000000
  0.087985 -0.177794  0.062860      4.000000
  0.109981 -0.190493  0.053880      4.000000
 -0.109981 -0.063498  0.143679      4.000000
 -0.087985 -0.076197  0.134699      4.000000
 -0.065989 -0.088897  0.125719      4.000000
 -0.043993 -0.101596  0.116739      4.000000
 -0.021996 -0.114296  0.107759      4.000000
  0.000000 -0.101596  0.089799      2.000000
  0.087985 -0.152395  0.053880      4.000000
  0.109981 -0.165094  0.044900      4.000000
 -0.109981 -0.038099  0.134699      4.000000
 -0.087985 -0.050798  0.125719      4.000000
 -0.065989 -0.063498  0.116739      4.000000
 -0.043993 -0.076197  0.107759      4.000000
 -0.021996 -0.088897  0.098779      4.000000
  0.000000 -0.076197  0.080819      2.000000
  0.109981 -0.139695  0.035920      4.000000
 -0.109981 -0.012700  0.125719      4.000000
 -0.087985 -0.025399  0.116739      4.000000
 -0.065989 -0.038099  0.107759      4.000000
 -0.043993 -0.050798  0.098779      4.000000
 -0.021996 -0.063498  0.089799      4.000000
  0.000000 -0.050798  0.071840      2.000000
  0.109981 -0.114296  0.026940      4.000000
 -0.109981  0.012700  0.116739      4.000000
 -0.087985  0.000000  0.107759      4.000000
 -0.065989 -0.012700  0.098779      4.000000
 -0.043993 -0.025399  0.089799      4.000000
 -0.021996 -0.038099  0.080819      4.000000
  0.000000 -0.025399  0.062860      2.000000
  0.109981 -0.088897  0.017960      4.000000
 -0.109981  0.038099  0.107759      4.000000
 -0.087985  0.025399  0.098779      4.000000
 -0.065989  0.012700  0.089799      4.000000
 -0.043993  0.000000  0.080820      4.000000
 -0.021996 -0.012700  0.071840      4.000000
  0.000000  0.000000  0.080820      2.000000
 -0.109981  0.063498  0.125719      4.000000
 -0.087985  0.050798  0.116739      4.000000
 -0.065989  0.038099  0.107759      4.000000
 -0.043993  0.025399  0.098779      4.000000
 -0.021996  0.012700  0.089799      4.000000
  0.000000  0.025399  0.071840      2.000000
 -0.109981  0.088897  0.116739      4.000000
 -0.087985  0.076197  0.107759      4.000000
 -0.065989  0.063498  0.098779      4.000000
 -0.043993  0.050798  0.089799      4.000000
 -0.021996  0.038099  0.080820      4.000000
  0.000000  0.050798  0.062860      2.000000
 -0.109981  0.114296  0.107759      4.000000
 -0.087985  0.101596  0.098779      4.000000
 -0.065989  0.088897  0.089799      4.000000
 -0.043993  0.076197  0.080820      4.000000
 -0.021996  0.063498  0.071840      4.000000
  0.000000  0.076197  0.053880      2.000000
 -0.109981  0.139695  0.098779      2.000000
 -0.087985  0.126996  0.089799      4.000000
 -0.065989  0.114296  0.080820      4.000000
 -0.043993  0.101596  0.071840      4.000000
 -0.021996  0.088897  0.062860      4.000000
  0.000000  0.101596  0.044900      2.000000
 -0.087985  0.152395  0.080820      4.000000
 -0.065989  0.139695  0.071840      4.000000
 -0.043993  0.126996  0.062860      4.000000
 -0.021996  0.114296  0.053880      4.000000
  0.000000  0.126996  0.035920      2.000000
 -0.087985  0.177794  0.071840      4.000000
 -0.065989  0.165094  0.062860      4.000000
 -0.043993  0.152395  0.053880      4.000000
 -0.021996  0.139695  0.044900      4.000000
  0.000000 -0.126996  0.125719      2.000000
 -0.087985 -0.076197  0.161639      4.000000
 -0.065989 -0.088897  0.152659      4.000000
 -0.043993 -0.101596  0.143679      4.000000
 -0.021996 -0.114296  0.134699      4.000000
  0.000000 -0.101596  0.116739      2.000000
 -0.109981 -0.038099  0.161639      4.000000
 -0.087985 -0.050798  0.152659      4.000000
 -0.065989 -0.063498  0.143679      4.000000
 -0.043993 -0.076197  0.134699      4.000000
 -0.021996 -0.088897  0.125719      4.000000
  0.000000 -0.076197  0.107759      2.000000
 -0.109981 -0.012700  0.152659      4.000000
 -0.087985 -0.025399  0.143679      4.000000
 -0.065989 -0.038099  0.134699      4.000000
 -0.043993 -0.050798  0.125719      4.000000
 -0.021996 -0.063498  0.116739      4.000000
  0.000000 -0.050798  0.098779      2.000000
 -0.087985  0.000000  0.134699      4.000000
 -0.065989 -0.012700  0.125719      4.000000
 -0.043993 -0.025399  0.116739      4.000000
 -0.021996 -0.038099  0.107759      4.000000
  0.000000 -0.025399  0.089799      2.000000
 -0.087985  0.025399  0.125719      4.000000
 -0.065989  0.012700  0.116739      4.000000
 -0.043993  0.000000  0.107759      4.000000
 -0.021996 -0.012700  0.098779      4.000000
  0.000000  0.000000  0.107759      2.000000
 -0.065989  0.038099  0.134699      4.000000
 -0.043993  0.025399  0.125719      4.000000
 -0.021996  0.012700  0.116739      4.000000
  0.000000  0.025399  0.098779      2.000000
 -0.065989  0.063498  0.125719      4.000000
 -0.043993  0.050798  0.116739      4.000000
 -0.021996  0.038099  0.107759      4.000000
  0.000000  0.050798  0.089799      2.000000
 -0.065989  0.088897  0.116739      4.000000
 -0.043993  0.076197  0.107759      4.000000
 -0.021996  0.063498  0.098779      4.000000
  0.000000  0.076197  0.080820      2.000000
 -0.065989  0.114296  0.107759      4.000000
 -0.043993  0.101596  0.098779      4.000000
 -0.021996  0.088897  0.089799      4.000000
  0.000000  0.101596  0.071840      2.000000
 -0.065989  0.139695  0.098779      2.000000
 -0.043993  0.126996  0.089799      4.000000
 -0.021996  0.114296  0.080820      4.000000
  0.000000  0.126996  0.062860      2.000000
 -0.043993  0.152395  0.080820      4.000000
 -0.021996  0.139695  0.071840      4.000000
  0.000000 -0.126996  0.152659      2.000000
 -0.043993 -0.101596  0.170619      4.000000
 -0.021996 -0.114296  0.161639      4.000000
  0.000000 -0.101596  0.143679      2.000000
 -0.043993 -0.076197  0.161639      4.000000
 -0.021996 -0.088897  0.152659      4.000000
  0.000000 -0.076197  0.134699      2.000000
 -0.043993 -0.050798  0.152659      4.000000
 -0.021996 -0.063498  0.143679      4.000000
  0.000000 -0.050798  0.125719      2.000000
 -0.065989 -0.012700  0.152659      4.000000
 -0.043993 -0.025399  0.143679      4.000000
 -0.021996 -0.038099  0.134699      4.000000
  0.000000 -0.025399  0.116739      2.000000
 -0.043993  0.000000  0.134699      4.000000
 -0.021996 -0.012700  0.125719      4.000000
  0.000000  0.000000  0.134699      2.000000
 -0.021996  0.012700  0.143679      4.000000
  0.000000  0.025399  0.125719      2.000000
 -0.021996  0.038099  0.134699      4.000000
  0.000000  0.050798  0.116739      2.000000
 -0.021996  0.063498  0.125719      4.000000
  0.000000  0.076197  0.107759      2.000000
 -0.021996  0.088897  0.116739      4.000000
  0.000000  0.101596  0.098779      2.000000
 -0.021996  0.114296  0.107759      4.000000
  0.000000  0.126996  0.089799      2.000000
 -0.021996  0.139695  0.098779      2.000000
  0.000000 -0.126996  0.179599      2.000000
  0.000000 -0.101596  0.170619      2.000000
  0.000000 -0.076197  0.161639      2.000000
  0.000000 -0.050798  0.152659      2.000000
  0.000000 -0.025399  0.143679      2.000000
 
 TETIRR: Found   2001 inequivalent tetrahedra from     7986


--------------------------------------------------------------------------------------------------------




 Dimension of arrays:
   k-points           NKPTS =    366   k-points in BZ     NKDIM =    366   number of bands    NBANDS=     20
   number of dos      NEDOS =    301   number of ions     NIONS =      2
   non local maximal  LDIM  =      8   non local SUM 2l+1 LMDIM =     32
   total plane-waves  NPLWV =  32768
   max r-space proj   IRMAX =  11897   max aug-charges    IRDMAX=  37722
   dimension x,y,z NGX =    32 NGY =   32 NGZ =   32
   dimension x,y,z NGXF=    64 NGYF=   64 NGZF=   64
   support grid    NGXF=    64 NGYF=   64 NGZF=   64
   ions per type =               1   1
   NGX,Y,Z   is equivalent  to a cutoff of  12.87, 12.87, 12.87 a.u.
   NGXF,Y,Z  is equivalent  to a cutoff of  25.74, 25.74, 25.74 a.u.

 SYSTEM =  unknown system                          
 POSCAR =  Eu1 S1                                  

 Startparameter for this run:
   NWRITE =      2    write-flag & timer
   PREC   = accura    normal or accurate (medium, high low for compatibility)
   ISTART =      0    job   : 0-new  1-cont  2-samecut
   ICHARG =      2    charge: 1-file 2-atom 10-const
   ISPIN  =      2    spin polarized calculation?
   LNONCOLLINEAR =      F non collinear calculations
   LSORBIT =      F    spin-orbit coupling
   INIWAV =      1    electr: 0-lowe 1-rand  2-diag
   LASPH  =      T    aspherical Exc in radial PAW
   METAGGA=      F    non-selfconsistent MetaGGA calc.

 Electronic Relaxation 1
   ENCUT  =  520.0 eV  38.22 Ry    6.18 a.u.   7.68  7.68  7.68*2*pi/ulx,y,z
   ENINI  =  520.0     initial cutoff
   ENAUG  =  549.6 eV  augmentation charge cutoff
   NELM   =    120;   NELMIN=  2; NELMDL=  0     # of ELM steps 
   EDIFF  = 0.1E-05   stopping-criterion for ELM
   LREAL  =      T    real-space projection
   NLSPLINE    = F    spline interpolate recip. space projectors
   LCOMPAT=      F    compatible to vasp.4.4
   GGA_COMPAT  = T    GGA compatible to vasp.4.4-vasp.4.6
   LMAXPAW     = -100 max onsite density
   LMAXMIX     =    4 max onsite mixed and CHGCAR
   VOSKOWN=      0    Vosko Wilk Nusair interpolation
   ROPT   =   -0.00025  -0.00025
 Ionic relaxation
   EDIFFG = 0.1E-04   stopping-criterion for IOM
   NSW    =      0    number of steps for IOM
   NBLOCK =      1;   KBLOCK =      1    inner block; outer block 
   IBRION =     -1    ionic relax: 0-MD 1-quasi-New 2-CG
   NFREE  =      0    steps in history (QN), initial steepest desc. (CG)
   ISIF   =      3    stress and relaxation
   IWAVPR =     10    prediction:  0-non 1-charg 2-wave 3-comb
   ISYM   =      2    0-nonsym 1-usesym 2-fastsym
   LCORR  =      T    Harris-Foulkes like correction to forces

   POTIM  = 0.5000    time-step for ionic-motion
   TEIN   =    0.0    initial temperature
   TEBEG  =    0.0;   TEEND  =   0.0 temperature during run
   SMASS  =  -3.00    Nose mass-parameter (am)
   estimated Nose-frequenzy (Omega)   =  0.10E-29 period in steps =****** mass=  -0.390E-27a.u.
   SCALEE = 1.0000    scale energy and forces
   NPACO  =    256;   APACO  = 16.0  distance and # of slots for P.C.
   PSTRESS=    0.0 pullay stress

  Mass of Ions in am
   POMASS = 151.97 32.07
  Ionic Valenz
   ZVAL   =  17.00  6.00
  Atomic Wigner-Seitz radii
   RWIGS  =  -1.00 -1.00
  virtual crystal weights 
   VCA    =   1.00  1.00
   NELECT =      23.0000    total number of electrons
   NUPDOWN=      -1.0000    fix difference up-down

 DOS related values:
   EMIN   =  10.00;   EMAX   =-10.00  energy-range for DOS
   EFERMI =   0.00
   ISMEAR =    -5;   SIGMA  =   0.05  broadening in eV -4-tet -1-fermi 0-gaus

 Electronic relaxation 2 (details)
   IALGO  =     38    algorithm
   LDIAG  =      T    sub-space diagonalisation (order eigenvalues)
   LSUBROT=      F    optimize rotation matrix (better conditioning)
   TURBO    =      0    0=normal 1=particle mesh
   IRESTART =      0    0=no restart 2=restart with 2 vectors
   NREBOOT  =      0    no. of reboots
   NMIN     =      0    reboot dimension
   EREF     =   0.00    reference energy to select bands
   IMIX   =      4    mixing-type and parameters
     AMIX     =   0.40;   BMIX     =  1.00
     AMIX_MAG =   1.60;   BMIX_MAG =  1.00
     AMIN     =   0.10
     WC   =   100.;   INIMIX=   1;  MIXPRE=   1;  MAXMIX= -45

 Intra band minimization:
   WEIMIN = 0.0000     energy-eigenvalue tresh-hold
   EBREAK =  0.12E-07  absolut break condition
   DEPER  =   0.30     relativ break condition  

   TIME   =   0.40     timestep for ELM

  volume/ion in A,a.u.               =      24.96       168.43
  Fermi-wavevector in a.u.,A,eV,Ry     =   1.264438  2.389442 21.753059  1.598805
  Thomas-Fermi vector in A             =   2.397744
 
 Write flags
   LWAVE        =      F    write WAVECAR
   LDOWNSAMPLE  =      F    k-point downsampling of WAVECAR
   LCHARG       =      T    write CHGCAR
   LVTOT        =      F    write LOCPOT, total local potential
   LVHAR        =      F    write LOCPOT, Hartree potential only
   LELF         =      F    write electronic localiz. function (ELF)
   LORBIT       =     11    0 simple, 1 ext, 2 COOP (PROOUT), +10 PAW based schemes


 Dipole corrections
   LMONO  =      F    monopole corrections only (constant potential shift)
   LDIPOL =      F    correct potential (dipole corrections)
   IDIPOL =      0    1-x, 2-y, 3-z, 4-all directions 
   EPSILON=  1.0000000 bulk dielectric constant

 Exchange correlation treatment:
   GGA     =    --    GGA type
   LEXCH   =     8    internal setting for exchange type
   VOSKOWN=      0    Vosko Wilk Nusair interpolation
   LHFCALC =     F    Hartree Fock is set to
   LHFONE  =     F    Hartree Fock one center treatment
   AEXX    =    0.0000 exact exchange contribution

 Linear response parameters
   LEPSILON=     F    determine dielectric tensor
   LRPA    =     F    only Hartree local field effects (RPA)
   LNABLA  =     F    use nabla operator in PAW spheres
   LVEL    =     F    velocity operator in full k-point grid
   LINTERFAST=   F  fast interpolation
   KINTER  =     0    interpolate to denser k-point grid
   CSHIFT  =0.1000    complex shift for real part using Kramers Kronig
   OMEGAMAX=  -1.0    maximum frequency
   DEG_THRESHOLD= 0.2000000E-02 threshold for treating states as degnerate
   RTIME   =   -0.100 relaxation time in fs
  (WPLASMAI=    0.000 imaginary part of plasma frequency in eV, 0.658/RTIME)
   DFIELD  = 0.0000000 0.0000000 0.0000000 field for delta impulse in time
 
 Orbital magnetization related:
   ORBITALMAG=     F  switch on orbital magnetization
   LCHIMAG   =     F  perturbation theory with respect to B field
   DQ        =  0.001000  dq finite difference perturbation B field
   LLRAUG    =     F  two centre corrections for induced B field



--------------------------------------------------------------------------------------------------------


 Static calculation
 charge density and potential will be updated during run
 spin polarized calculation
 Variant of blocked Davidson
 Davidson routine will perform the subspace rotation
 perform sub-space diagonalisation
    after iterative eigenvector-optimisation
 modified Broyden-mixing scheme, WC =      100.0
 initial mixing is a Kerker type mixing with AMIX =  0.4000 and BMIX =      1.0000
 Hartree-type preconditioning will be used
 using additional bands            8
 real space projection scheme for non local part
 use partial core corrections
 calculate Harris-corrections to forces 
   (improved forces if not selfconsistent)
 use gradient corrections 
 use of overlap-Matrix (Vanderbilt PP)
 Fermi weights with tetrahedron method with Bloechl corrections


--------------------------------------------------------------------------------------------------------


  energy-cutoff  :      520.00
  volume of cell :       49.92
      direct lattice vectors                 reciprocal lattice vectors
     4.132930000  0.000000000  0.000000000     0.241959094 -0.139695124 -0.098779407
     2.066465000  3.579223000  0.000000000     0.000000000  0.279390248 -0.098779365
     2.066465000  1.193074000  3.374523000     0.000000000  0.000000000  0.296338179

  length of vectors
     4.132930000  4.132930544  4.132929789     0.296338155  0.296338107  0.296338179


 
 k-points in units of 2pi/SCALE and weight: pymatgen v2019.10.16 with grid density =
   0.00000000  0.00000000  0.00000000       0.001
   0.02199628 -0.01269956 -0.00897995       0.003
   0.04399256 -0.02539911 -0.01795989       0.003
   0.06598884 -0.03809867 -0.02693984       0.003
   0.08798513 -0.05079823 -0.03591978       0.003
   0.10998141 -0.06349778 -0.04489973       0.003
   0.00000000  0.02539911 -0.00897994       0.002
   0.02199628  0.01269956 -0.01795989       0.003
   0.04399256  0.00000000 -0.02693983       0.003
   0.06598884 -0.01269956 -0.03591978       0.003
   0.08798513 -0.02539911 -0.04489973       0.003
   0.10998141 -0.03809867 -0.05387967       0.003
  -0.10998141  0.08889690  0.03591979       0.003
  -0.08798513  0.07619734  0.02693984       0.003
  -0.06598884  0.06349778  0.01795990       0.003
  -0.04399256  0.05079823  0.00897995       0.003
  -0.02199628  0.03809867  0.00000000       0.003
   0.00000000  0.05079823 -0.01795988       0.002
   0.02199628  0.03809867 -0.02693983       0.003
   0.04399256  0.02539911 -0.03591978       0.003
   0.06598884  0.01269956 -0.04489972       0.003
   0.08798513  0.00000000 -0.05387967       0.003
   0.10998141 -0.01269956 -0.06285961       0.003
  -0.10998141  0.11429601  0.02693985       0.003
  -0.08798513  0.10159645  0.01795990       0.003
  -0.06598884  0.08889690  0.00897995       0.003
  -0.04399256  0.07619734  0.00000001       0.003
  -0.02199628  0.06349778 -0.00897994       0.003
   0.00000000  0.07619734 -0.02693983       0.002
   0.02199628  0.06349778 -0.03591977       0.003
   0.04399256  0.05079823 -0.04489972       0.003
   0.06598884  0.03809867 -0.05387967       0.003
   0.08798513  0.02539911 -0.06285961       0.003
   0.10998141  0.01269956 -0.07183956       0.003
  -0.10998141  0.13969512  0.01795990       0.003
  -0.08798513  0.12699557  0.00897996       0.003
  -0.06598884  0.11429601  0.00000001       0.003
  -0.04399256  0.10159645 -0.00897993       0.003
  -0.02199628  0.08889690 -0.01795988       0.003
   0.00000000  0.10159645 -0.03591977       0.002
   0.02199628  0.08889690 -0.04489972       0.003
   0.04399256  0.07619734 -0.05387966       0.003
   0.06598884  0.06349778 -0.06285961       0.003
   0.08798513  0.05079823 -0.07183955       0.003
   0.10998141  0.03809867 -0.08081950       0.003
  -0.10998141  0.16509424  0.00897996       0.003
  -0.08798513  0.15239468  0.00000002       0.003
  -0.06598884  0.13969512 -0.00897993       0.003
  -0.04399256  0.12699557 -0.01795988       0.003
  -0.02199628  0.11429601 -0.02693982       0.003
   0.00000000  0.12699557 -0.04489971       0.002
   0.02199628  0.11429601 -0.05387966       0.003
   0.04399256  0.10159645 -0.06285960       0.003
   0.06598884  0.08889690 -0.07183955       0.003
   0.08798513  0.07619734 -0.08081950       0.003
   0.10998141  0.06349778 -0.08979944       0.003
  -0.10998141  0.19049335  0.00000002       0.003
  -0.08798513  0.17779379 -0.00897993       0.003
  -0.06598884  0.16509424 -0.01795987       0.003
  -0.04399256  0.15239468 -0.02693982       0.003
  -0.02199628  0.13969512 -0.03591977       0.003
   0.00000000  0.00000000  0.02693983       0.002
   0.04399256 -0.02539911  0.00897994       0.003
   0.06598884 -0.03809867 -0.00000000       0.003
   0.08798513 -0.05079823 -0.00897995       0.003
   0.10998141 -0.06349778 -0.01795990       0.003
  -0.10998141  0.06349778  0.07183956       0.003
  -0.08798513  0.05079823  0.06285962       0.003
  -0.06598884  0.03809867  0.05387967       0.003
  -0.04399256  0.02539911  0.04489973       0.003
  -0.02199628  0.01269956  0.03591978       0.003
   0.00000000  0.02539911  0.01795989       0.002
   0.04399256  0.00000000  0.00000000       0.002
   0.06598884 -0.01269956 -0.00897995       0.003
   0.08798513 -0.02539911 -0.01795989       0.003
   0.10998141 -0.03809867 -0.02693984       0.003
  -0.10998141  0.08889690  0.06285962       0.003
  -0.08798513  0.07619734  0.05387968       0.003
  -0.06598884  0.06349778  0.04489973       0.003
  -0.04399256  0.05079823  0.03591978       0.003
  -0.02199628  0.03809867  0.02693984       0.003
   0.00000000  0.05079823  0.00897995       0.002
   0.06598884  0.01269956 -0.01795989       0.003
   0.08798513  0.00000000 -0.02693983       0.003
   0.10998141 -0.01269956 -0.03591978       0.003
  -0.10998141  0.11429601  0.05387968       0.003
  -0.08798513  0.10159645  0.04489973       0.003
  -0.06598884  0.08889690  0.03591979       0.003
  -0.04399256  0.07619734  0.02693984       0.003
  -0.02199628  0.06349778  0.01795990       0.003
   0.00000000  0.07619734  0.00000001       0.002
   0.04399256  0.05079823 -0.01795988       0.003
   0.06598884  0.03809867 -0.02693983       0.003
   0.08798513  0.02539911 -0.03591978       0.003
   0.10998141  0.01269956 -0.04489972       0.003
  -0.10998141  0.13969512  0.04489974       0.003
  -0.08798513  0.12699557  0.03591979       0.003
  -0.06598884  0.11429601  0.02693985       0.003
  -0.04399256  0.10159645  0.01795990       0.003
  -0.02199628  0.08889690  0.00897995       0.003
   0.00000000  0.10159645 -0.00897993       0.002
   0.04399256  0.07619734 -0.02693983       0.003
   0.06598884  0.06349778 -0.03591977       0.003
   0.08798513  0.05079823 -0.04489972       0.003
   0.10998141  0.03809867 -0.05387967       0.003
  -0.10998141  0.16509424  0.03591980       0.003
  -0.08798513  0.15239468  0.02693985       0.003
  -0.06598884  0.13969512  0.01795990       0.003
  -0.04399256  0.12699557  0.00897996       0.003
  -0.02199628  0.11429601  0.00000001       0.003
   0.00000000  0.12699557 -0.01795988       0.002
   0.04399256  0.10159645 -0.03591977       0.003
   0.06598884  0.08889690 -0.04489972       0.003
   0.08798513  0.07619734 -0.05387966       0.003
   0.10998141  0.06349778 -0.06285961       0.003
  -0.10998141  0.19049335  0.02693985       0.003
  -0.08798513  0.17779379  0.01795991       0.003
  -0.06598884  0.16509424  0.00897996       0.003
  -0.04399256  0.15239468  0.00000002       0.003
  -0.02199628  0.13969512 -0.00897993       0.003
   0.00000000 -0.12699557  0.07183955       0.002
   0.04399256 -0.15239468  0.05387965       0.003
   0.06598884 -0.16509424  0.04489971       0.003
   0.08798513 -0.17779379  0.03591976       0.003
   0.10998141 -0.19049335  0.02693982       0.003
  -0.10998141 -0.06349778  0.11673928       0.003
  -0.08798513 -0.07619734  0.10775933       0.003
  -0.06598884 -0.08889690  0.09877938       0.003
  -0.04399256 -0.10159645  0.08979944       0.003
  -0.02199628 -0.11429601  0.08081949       0.003
   0.00000000 -0.10159645  0.06285960       0.002
   0.06598884 -0.13969512  0.03591977       0.003
   0.08798513 -0.15239468  0.02693982       0.003
   0.10998141 -0.16509424  0.01795987       0.003
  -0.10998141 -0.03809867  0.10775933       0.003
  -0.08798513 -0.05079823  0.09877939       0.003
  -0.06598884 -0.06349778  0.08979944       0.003
  -0.04399256 -0.07619734  0.08081950       0.003
  -0.02199628 -0.08889690  0.07183955       0.003
   0.00000000 -0.07619734  0.05387966       0.002
   0.06598884 -0.11429601  0.02693982       0.003
   0.08798513 -0.12699557  0.01795988       0.003
   0.10998141 -0.13969512  0.00897993       0.003
  -0.10998141 -0.01269956  0.09877939       0.003
  -0.08798513 -0.02539911  0.08979945       0.003
  -0.06598884 -0.03809867  0.08081950       0.003
  -0.04399256 -0.05079823  0.07183955       0.003
  -0.02199628 -0.06349778  0.06285961       0.003
   0.00000000 -0.05079823  0.04489972       0.002
   0.06598884 -0.08889690  0.01795988       0.003
   0.08798513 -0.10159645  0.00897993       0.003
   0.10998141 -0.11429601 -0.00000001       0.003
  -0.10998141  0.01269956  0.08979945       0.003
  -0.08798513  0.00000000  0.08081950       0.003
  -0.06598884 -0.01269956  0.07183956       0.003
  -0.04399256 -0.02539911  0.06285961       0.003
  -0.02199628 -0.03809867  0.05387967       0.003
   0.00000000 -0.02539911  0.03591978       0.002
   0.06598884 -0.06349778  0.00897994       0.003
   0.08798513 -0.07619734 -0.00000001       0.003
   0.10998141 -0.08889690 -0.00897995       0.003
  -0.10998141  0.03809867  0.08081951       0.003
  -0.08798513  0.02539911  0.07183956       0.003
  -0.06598884  0.01269956  0.06285961       0.003
  -0.04399256  0.00000000  0.05387967       0.003
  -0.02199628 -0.01269956  0.04489972       0.003
   0.00000000  0.00000000  0.05387967       0.002
   0.08798513 -0.05079823  0.01795988       0.003
   0.10998141 -0.06349778  0.00897994       0.003
  -0.10998141  0.06349778  0.09877940       0.003
  -0.08798513  0.05079823  0.08979945       0.003
  -0.06598884  0.03809867  0.08081951       0.003
  -0.04399256  0.02539911  0.07183956       0.003
  -0.02199628  0.01269956  0.06285961       0.003
   0.00000000  0.02539911  0.04489973       0.002
   0.08798513 -0.02539911  0.00897994       0.003
   0.10998141 -0.03809867 -0.00000000       0.003
  -0.10998141  0.08889690  0.08979946       0.003
  -0.08798513  0.07619734  0.08081951       0.003
  -0.06598884  0.06349778  0.07183956       0.003
  -0.04399256  0.05079823  0.06285962       0.003
  -0.02199628  0.03809867  0.05387967       0.003
   0.00000000  0.05079823  0.03591978       0.002
   0.08798513  0.00000000  0.00000000       0.002
   0.10998141 -0.01269956 -0.00897995       0.003
  -0.10998141  0.11429601  0.08081951       0.003
  -0.08798513  0.10159645  0.07183957       0.003
  -0.06598884  0.08889690  0.06285962       0.003
  -0.04399256  0.07619734  0.05387968       0.003
  -0.02199628  0.06349778  0.04489973       0.003
   0.00000000  0.07619734  0.02693984       0.002
   0.10998141  0.01269956 -0.01795989       0.003
  -0.10998141  0.13969512  0.07183957       0.003
  -0.08798513  0.12699557  0.06285963       0.003
  -0.06598884  0.11429601  0.05387968       0.003
  -0.04399256  0.10159645  0.04489973       0.003
  -0.02199628  0.08889690  0.03591979       0.003
   0.00000000  0.10159645  0.01795990       0.002
   0.10998141  0.03809867 -0.02693983       0.003
  -0.10998141  0.16509424  0.06285963       0.003
  -0.08798513  0.15239468  0.05387968       0.003
  -0.06598884  0.13969512  0.04489974       0.003
  -0.04399256  0.12699557  0.03591979       0.003
  -0.02199628  0.11429601  0.02693985       0.003
   0.00000000  0.12699557  0.00897996       0.002
   0.08798513  0.07619734 -0.02693983       0.003
   0.10998141  0.06349778 -0.03591977       0.003
  -0.10998141  0.19049335  0.05387969       0.003
  -0.08798513  0.17779379  0.04489974       0.003
  -0.06598884  0.16509424  0.03591980       0.003
  -0.04399256  0.15239468  0.02693985       0.003
  -0.02199628  0.13969512  0.01795990       0.003
   0.00000000 -0.12699557  0.09877938       0.002
   0.08798513 -0.17779379  0.06285960       0.003
   0.10998141 -0.19049335  0.05387965       0.003
  -0.10998141 -0.06349778  0.14367911       0.003
  -0.08798513 -0.07619734  0.13469916       0.003
  -0.06598884 -0.08889690  0.12571922       0.003
  -0.04399256 -0.10159645  0.11673927       0.003
  -0.02199628 -0.11429601  0.10775933       0.003
   0.00000000 -0.10159645  0.08979944       0.002
   0.08798513 -0.15239468  0.05387965       0.003
   0.10998141 -0.16509424  0.04489971       0.003
  -0.10998141 -0.03809867  0.13469917       0.003
  -0.08798513 -0.05079823  0.12571922       0.003
  -0.06598884 -0.06349778  0.11673928       0.003
  -0.04399256 -0.07619734  0.10775933       0.003
  -0.02199628 -0.08889690  0.09877938       0.003
   0.00000000 -0.07619734  0.08081950       0.002
   0.10998141 -0.13969512  0.03591977       0.003
  -0.10998141 -0.01269956  0.12571923       0.003
  -0.08798513 -0.02539911  0.11673928       0.003
  -0.06598884 -0.03809867  0.10775933       0.003
  -0.04399256 -0.05079823  0.09877939       0.003
  -0.02199628 -0.06349778  0.08979944       0.003
   0.00000000 -0.05079823  0.07183955       0.002
   0.10998141 -0.11429601  0.02693982       0.003
  -0.10998141  0.01269956  0.11673928       0.003
  -0.08798513  0.00000000  0.10775934       0.003
  -0.06598884 -0.01269956  0.09877939       0.003
  -0.04399256 -0.02539911  0.08979945       0.003
  -0.02199628 -0.03809867  0.08081950       0.003
   0.00000000 -0.02539911  0.06285961       0.002
   0.10998141 -0.08889690  0.01795988       0.003
  -0.10998141  0.03809867  0.10775934       0.003
  -0.08798513  0.02539911  0.09877940       0.003
  -0.06598884  0.01269956  0.08979945       0.003
  -0.04399256  0.00000000  0.08081950       0.003
  -0.02199628 -0.01269956  0.07183956       0.003
   0.00000000  0.00000000  0.08081950       0.002
  -0.10998141  0.06349778  0.12571923       0.003
  -0.08798513  0.05079823  0.11673929       0.003
  -0.06598884  0.03809867  0.10775934       0.003
  -0.04399256  0.02539911  0.09877940       0.003
  -0.02199628  0.01269956  0.08979945       0.003
   0.00000000  0.02539911  0.07183956       0.002
  -0.10998141  0.08889690  0.11673929       0.003
  -0.08798513  0.07619734  0.10775935       0.003
  -0.06598884  0.06349778  0.09877940       0.003
  -0.04399256  0.05079823  0.08979945       0.003
  -0.02199628  0.03809867  0.08081951       0.003
   0.00000000  0.05079823  0.06285962       0.002
  -0.10998141  0.11429601  0.10775935       0.003
  -0.08798513  0.10159645  0.09877940       0.003
  -0.06598884  0.08889690  0.08979946       0.003
  -0.04399256  0.07619734  0.08081951       0.003
  -0.02199628  0.06349778  0.07183956       0.003
   0.00000000  0.07619734  0.05387968       0.002
  -0.10998141  0.13969512  0.09877941       0.002
  -0.08798513  0.12699557  0.08979946       0.003
  -0.06598884  0.11429601  0.08081951       0.003
  -0.04399256  0.10159645  0.07183957       0.003
  -0.02199628  0.08889690  0.06285962       0.003
   0.00000000  0.10159645  0.04489973       0.002
  -0.08798513  0.15239468  0.08081952       0.003
  -0.06598884  0.13969512  0.07183957       0.003
  -0.04399256  0.12699557  0.06285963       0.003
  -0.02199628  0.11429601  0.05387968       0.003
   0.00000000  0.12699557  0.03591979       0.002
  -0.08798513  0.17779379  0.07183958       0.003
  -0.06598884  0.16509424  0.06285963       0.003
  -0.04399256  0.15239468  0.05387968       0.003
  -0.02199628  0.13969512  0.04489974       0.003
   0.00000000 -0.12699557  0.12571921       0.002
  -0.08798513 -0.07619734  0.16163900       0.003
  -0.06598884 -0.08889690  0.15265905       0.003
  -0.04399256 -0.10159645  0.14367911       0.003
  -0.02199628 -0.11429601  0.13469916       0.003
   0.00000000 -0.10159645  0.11673927       0.002
  -0.10998141 -0.03809867  0.16163900       0.003
  -0.08798513 -0.05079823  0.15265906       0.003
  -0.06598884 -0.06349778  0.14367911       0.003
  -0.04399256 -0.07619734  0.13469916       0.003
  -0.02199628 -0.08889690  0.12571922       0.003
   0.00000000 -0.07619734  0.10775933       0.002
  -0.10998141 -0.01269956  0.15265906       0.003
  -0.08798513 -0.02539911  0.14367911       0.003
  -0.06598884 -0.03809867  0.13469917       0.003
  -0.04399256 -0.05079823  0.12571922       0.003
  -0.02199628 -0.06349778  0.11673928       0.003
   0.00000000 -0.05079823  0.09877939       0.002
  -0.08798513  0.00000000  0.13469917       0.003
  -0.06598884 -0.01269956  0.12571923       0.003
  -0.04399256 -0.02539911  0.11673928       0.003
  -0.02199628 -0.03809867  0.10775933       0.003
   0.00000000 -0.02539911  0.08979945       0.002
  -0.08798513  0.02539911  0.12571923       0.003
  -0.06598884  0.01269956  0.11673928       0.003
  -0.04399256  0.00000000  0.10775934       0.003
  -0.02199628 -0.01269956  0.09877939       0.003
   0.00000000  0.00000000  0.10775934       0.002
  -0.06598884  0.03809867  0.13469918       0.003
  -0.04399256  0.02539911  0.12571923       0.003
  -0.02199628  0.01269956  0.11673928       0.003
   0.00000000  0.02539911  0.09877940       0.002
  -0.06598884  0.06349778  0.12571923       0.003
  -0.04399256  0.05079823  0.11673929       0.003
  -0.02199628  0.03809867  0.10775934       0.003
   0.00000000  0.05079823  0.08979945       0.002
  -0.06598884  0.08889690  0.11673929       0.003
  -0.04399256  0.07619734  0.10775935       0.003
  -0.02199628  0.06349778  0.09877940       0.003
   0.00000000  0.07619734  0.08081951       0.002
  -0.06598884  0.11429601  0.10775935       0.003
  -0.04399256  0.10159645  0.09877940       0.003
  -0.02199628  0.08889690  0.08979946       0.003
   0.00000000  0.10159645  0.07183957       0.002
  -0.06598884  0.13969512  0.09877941       0.002
  -0.04399256  0.12699557  0.08979946       0.003
  -0.02199628  0.11429601  0.08081951       0.003
   0.00000000  0.12699557  0.06285963       0.002
  -0.04399256  0.15239468  0.08081952       0.003
  -0.02199628  0.13969512  0.07183957       0.003
   0.00000000 -0.12699557  0.15265905       0.002
  -0.04399256 -0.10159645  0.17061894       0.003
  -0.02199628 -0.11429601  0.16163900       0.003
   0.00000000 -0.10159645  0.14367911       0.002
  -0.04399256 -0.07619734  0.16163900       0.003
  -0.02199628 -0.08889690  0.15265905       0.003
   0.00000000 -0.07619734  0.13469916       0.002
  -0.04399256 -0.05079823  0.15265906       0.003
  -0.02199628 -0.06349778  0.14367911       0.003
   0.00000000 -0.05079823  0.12571922       0.002
  -0.06598884 -0.01269956  0.15265906       0.003
  -0.04399256 -0.02539911  0.14367911       0.003
  -0.02199628 -0.03809867  0.13469917       0.003
   0.00000000 -0.02539911  0.11673928       0.002
  -0.04399256  0.00000000  0.13469917       0.003
  -0.02199628 -0.01269956  0.12571923       0.003
   0.00000000  0.00000000  0.13469917       0.002
  -0.02199628  0.01269956  0.14367912       0.003
   0.00000000  0.02539911  0.12571923       0.002
  -0.02199628  0.03809867  0.13469918       0.003
   0.00000000  0.05079823  0.11673929       0.002
  -0.02199628  0.06349778  0.12571923       0.003
   0.00000000  0.07619734  0.10775935       0.002
  -0.02199628  0.08889690  0.11673929       0.003
   0.00000000  0.10159645  0.09877940       0.002
  -0.02199628  0.11429601  0.10775935       0.003
   0.00000000  0.12699557  0.08979946       0.002
  -0.02199628  0.13969512  0.09877941       0.002
   0.00000000 -0.12699557  0.17959888       0.002
   0.00000000 -0.10159645  0.17061894       0.002
   0.00000000 -0.07619734  0.16163900       0.002
   0.00000000 -0.05079823  0.15265906       0.002
   0.00000000 -0.02539911  0.14367911       0.002
 
 k-points in reciprocal lattice and weights: pymatgen v2019.10.16 with grid density =
   0.00000000  0.00000000  0.00000000       0.001
   0.09090909  0.00000000  0.00000000       0.003
   0.18181818  0.00000000  0.00000000       0.003
   0.27272727 -0.00000000 -0.00000000       0.003
   0.36363636  0.00000000  0.00000000       0.003
   0.45454545  0.00000000  0.00000000       0.003
   0.00000000  0.09090909  0.00000000       0.002
   0.09090909  0.09090909  0.00000000       0.003
   0.18181818  0.09090909  0.00000000       0.003
   0.27272727  0.09090909 -0.00000000       0.003
   0.36363636  0.09090909  0.00000000       0.003
   0.45454545  0.09090909  0.00000000       0.003
  -0.45454545  0.09090909 -0.00000000       0.003
  -0.36363636  0.09090909 -0.00000000       0.003
  -0.27272727  0.09090909  0.00000000       0.003
  -0.18181818  0.09090909 -0.00000000       0.003
  -0.09090909  0.09090909 -0.00000000       0.003
   0.00000000  0.18181818  0.00000000       0.002
   0.09090909  0.18181818  0.00000000       0.003
   0.18181818  0.18181818  0.00000000       0.003
   0.27272727  0.18181818 -0.00000000       0.003
   0.36363636  0.18181818  0.00000000       0.003
   0.45454545  0.18181818  0.00000000       0.003
  -0.45454545  0.18181818 -0.00000000       0.003
  -0.36363636  0.18181818 -0.00000000       0.003
  -0.27272727  0.18181818  0.00000000       0.003
  -0.18181818  0.18181818 -0.00000000       0.003
  -0.09090909  0.18181818 -0.00000000       0.003
   0.00000000  0.27272727  0.00000000       0.002
   0.09090909  0.27272727  0.00000000       0.003
   0.18181818  0.27272727  0.00000000       0.003
   0.27272727  0.27272727  0.00000000       0.003
   0.36363636  0.27272727  0.00000000       0.003
   0.45454545  0.27272727  0.00000000       0.003
  -0.45454545  0.27272727 -0.00000000       0.003
  -0.36363636  0.27272727 -0.00000000       0.003
  -0.27272727  0.27272727  0.00000000       0.003
  -0.18181818  0.27272727 -0.00000000       0.003
  -0.09090909  0.27272727 -0.00000000       0.003
   0.00000000  0.36363636  0.00000000       0.002
   0.09090909  0.36363636  0.00000000       0.003
   0.18181818  0.36363636  0.00000000       0.003
   0.27272727  0.36363636  0.00000000       0.003
   0.36363636  0.36363636  0.00000000       0.003
   0.45454545  0.36363636  0.00000000       0.003
  -0.45454545  0.36363636 -0.00000000       0.003
  -0.36363636  0.36363636 -0.00000000       0.003
  -0.27272727  0.36363636  0.00000000       0.003
  -0.18181818  0.36363636 -0.00000000       0.003
  -0.09090909  0.36363636 -0.00000000       0.003
   0.00000000  0.45454545  0.00000000       0.002
   0.09090909  0.45454545  0.00000000       0.003
   0.18181818  0.45454545 -0.00000000       0.003
   0.27272727  0.45454545 -0.00000000       0.003
   0.36363636  0.45454545  0.00000000       0.003
   0.45454545  0.45454545  0.00000000       0.003
  -0.45454545  0.45454545 -0.00000000       0.003
  -0.36363636  0.45454545 -0.00000000       0.003
  -0.27272727  0.45454545  0.00000000       0.003
  -0.18181818  0.45454545 -0.00000000       0.003
  -0.09090909  0.45454545 -0.00000000       0.003
   0.00000000  0.00000000  0.09090909       0.002
   0.18181818  0.00000000  0.09090909       0.003
   0.27272727 -0.00000000  0.09090909       0.003
   0.36363636  0.00000000  0.09090909       0.003
   0.45454545  0.00000000  0.09090909       0.003
  -0.45454545 -0.00000000  0.09090909       0.003
  -0.36363636  0.00000000  0.09090909       0.003
  -0.27272727  0.00000000  0.09090909       0.003
  -0.18181818  0.00000000  0.09090909       0.003
  -0.09090909  0.00000000  0.09090909       0.003
   0.00000000  0.09090909  0.09090909       0.002
   0.18181818  0.09090909  0.09090909       0.002
   0.27272727  0.09090909  0.09090909       0.003
   0.36363636  0.09090909  0.09090909       0.003
   0.45454545  0.09090909  0.09090909       0.003
  -0.45454545  0.09090909  0.09090909       0.003
  -0.36363636  0.09090909  0.09090909       0.003
  -0.27272727  0.09090909  0.09090909       0.003
  -0.18181818  0.09090909  0.09090909       0.003
  -0.09090909  0.09090909  0.09090909       0.003
   0.00000000  0.18181818  0.09090909       0.002
   0.27272727  0.18181818  0.09090909       0.003
   0.36363636  0.18181818  0.09090909       0.003
   0.45454545  0.18181818  0.09090909       0.003
  -0.45454545  0.18181818  0.09090909       0.003
  -0.36363636  0.18181818  0.09090909       0.003
  -0.27272727  0.18181818  0.09090909       0.003
  -0.18181818  0.18181818  0.09090909       0.003
  -0.09090909  0.18181818  0.09090909       0.003
   0.00000000  0.27272727  0.09090909       0.002
[...]
     18       9.6787      0.00000
     19      10.1909      0.00000
     20      11.9086      0.00000


--------------------------------------------------------------------------------------------------------


 soft charge-density along one line, spin component           1
         0         1         2         3         4         5         6         7         8         9
 total charge-density along one line
 
 soft charge-density along one line, spin component           2
         0         1         2         3         4         5         6         7         8         9
 total charge-density along one line
 
 pseudopotential strength for first ion, spin component:           1
 -8.485  -4.182  -0.000  -0.000   0.000  -0.000  -0.000   0.000
 -4.182  -0.255   0.000   0.000  -0.000  -0.000  -0.000   0.000
 -0.000   0.000 -15.630   0.000  -0.000   7.412  -0.000   0.000
 -0.000   0.000   0.000 -15.630  -0.000  -0.000   7.412   0.000
  0.000  -0.000  -0.000  -0.000 -15.630   0.000   0.000   7.412
 -0.000  -0.000   7.412  -0.000   0.000   4.896   0.000  -0.000
 -0.000  -0.000  -0.000   7.412   0.000   0.000   4.896  -0.000
  0.000   0.000   0.000   0.000   7.412  -0.000  -0.000   4.896
  0.000  -0.000   0.000  -0.000  -0.000   0.000   0.000  -0.000
  0.000   0.000  -0.000  -0.000  -0.000  -0.000  -0.000   0.000
 -0.000   0.000   0.000   0.000  -0.000   0.000  -0.000  -0.000
  0.000  -0.000  -0.000   0.000  -0.000   0.000   0.000  -0.000
 -0.000  -0.000   0.000  -0.000   0.000   0.000  -0.000   0.000
 -0.000   0.000   0.000   0.000  -0.000  -0.000  -0.000   0.000
 -0.000  -0.000  -0.000  -0.000   0.000   0.000   0.000  -0.000
  0.000  -0.000   0.000  -0.000   0.000  -0.000   0.000   0.000
 -0.000   0.000   0.000  -0.000  -0.000  -0.000  -0.000   0.000
  0.000   0.000  -0.000   0.000  -0.000  -0.000   0.000  -0.000
  0.000  -0.000  -0.000  -0.001  -0.000   0.000  -0.001   0.000
 -0.000   0.000  -0.000  -0.000  -0.001   0.000   0.000  -0.001
 -0.000   0.000   0.000   0.000   0.000   0.001  -0.000  -0.000
 -0.000   0.000  -0.000  -0.001   0.000   0.000  -0.001  -0.000
  0.000  -0.000   0.000  -0.000   0.000  -0.000   0.000   0.000
  0.000  -0.000  -0.001  -0.000  -0.000  -0.001   0.000   0.000
 -0.000  -0.000   0.000  -0.000  -0.000  -0.000   0.000   0.000
  0.000  -0.000  -0.000  -0.001  -0.000   0.000  -0.001   0.000
 -0.000   0.000  -0.000  -0.000  -0.001   0.000   0.000  -0.001
 -0.000   0.000   0.000   0.000   0.000   0.001  -0.000  -0.000
 -0.000   0.000  -0.000  -0.001   0.000   0.000  -0.001  -0.000
  0.000  -0.000   0.000  -0.000   0.000  -0.000   0.000   0.001
  0.000  -0.000  -0.001  -0.000  -0.000  -0.001   0.000   0.000
 -0.000  -0.000   0.000  -0.000  -0.000  -0.000   0.000   0.000
 pseudopotential strength for first ion, spin component:           2
-15.581   0.601  -0.000  -0.000   0.000  -0.000  -0.000   0.000
  0.601  -3.328   0.000   0.000  -0.000  -0.000  -0.000   0.000
 -0.000   0.000 -17.520  -0.000   0.000   7.792  -0.000  -0.000
 -0.000   0.000  -0.000 -17.520   0.000  -0.000   7.792  -0.000
  0.000  -0.000   0.000   0.000 -17.520  -0.000  -0.000   7.792
 -0.000  -0.000   7.792  -0.000  -0.000   5.131   0.000   0.000
 -0.000  -0.000  -0.000   7.792  -0.000   0.000   5.131   0.000
  0.000   0.000  -0.000  -0.000   7.792   0.000   0.000   5.131
 -0.000   0.000   0.000   0.000  -0.000   0.000   0.000  -0.000
 -0.000   0.000  -0.000  -0.000   0.000  -0.000  -0.000   0.000
 -0.000   0.000   0.000  -0.000  -0.000   0.000  -0.000  -0.000
 -0.000   0.000   0.000   0.000  -0.000   0.000   0.000  -0.000
  0.000  -0.000   0.000  -0.000   0.000   0.000  -0.000   0.000
  0.000  -0.000  -0.000   0.000  -0.000  -0.000  -0.000   0.000
  0.000  -0.000  -0.000   0.000   0.000   0.000   0.000  -0.000
  0.000  -0.000  -0.000   0.000   0.000  -0.000   0.000   0.000
  0.000  -0.000   0.000  -0.000  -0.000  -0.000  -0.000   0.000
 -0.000   0.000  -0.000  -0.000  -0.000  -0.000   0.000  -0.000
  0.000  -0.000  -0.000  -0.009   0.000   0.000   0.007  -0.000
 -0.000   0.000   0.000   0.000  -0.012  -0.000  -0.000   0.008
 -0.000   0.000   0.005   0.000  -0.000  -0.004  -0.000   0.000
 -0.000   0.000  -0.000  -0.008  -0.000   0.000   0.006   0.000
  0.000  -0.000  -0.000   0.000   0.005   0.000  -0.000  -0.004
  0.000  -0.000  -0.012  -0.000   0.000   0.008   0.000  -0.000
 -0.000  -0.000  -0.000  -0.000  -0.000   0.000   0.000   0.000
  0.000  -0.000  -0.000  -0.009   0.000   0.000   0.006  -0.000
 -0.000   0.000   0.000   0.000  -0.011  -0.000  -0.000   0.008
 -0.000   0.000   0.005   0.000  -0.000  -0.004  -0.000   0.000
 -0.000   0.000  -0.000  -0.008  -0.000   0.000   0.006   0.000
  0.000  -0.000  -0.000   0.000   0.005   0.000  -0.000  -0.004
  0.000  -0.000  -0.011  -0.000   0.000   0.008   0.000  -0.000
 -0.000  -0.000  -0.000  -0.000  -0.000   0.000   0.000   0.000
 total augmentation occupancy for first ion, spin component:           1
  1.995  -0.027   0.000   0.000   0.000   0.000   0.000   0.000   0.000  -0.000  -0.000   0.000   0.000   0.000  -0.000  -0.000
 -0.027   0.574   0.000   0.000   0.000   0.000   0.000   0.000   0.000   0.000   0.000   0.000  -0.000   0.000   0.000   0.000
  0.000   0.000   2.011   0.000   0.000  -0.016  -0.000   0.000   0.000   0.000   0.000   0.000   0.000   0.000   0.000   0.000
  0.000   0.000   0.000   2.011   0.000  -0.000  -0.016   0.000   0.000   0.000   0.000   0.000   0.000   0.000   0.000   0.000
  0.000   0.000   0.000   0.000   2.011   0.000   0.000  -0.016   0.000   0.000   0.000   0.000   0.000   0.000   0.000   0.000
  0.000   0.000  -0.016  -0.000   0.000   0.017   0.000   0.000   0.000   0.000   0.000   0.000   0.000   0.000   0.000   0.000
  0.000   0.000  -0.000  -0.016   0.000   0.000   0.017   0.000   0.000   0.000   0.000   0.000   0.000   0.000   0.000   0.000
  0.000   0.000   0.000   0.000  -0.016   0.000   0.000   0.017   0.000   0.000   0.000   0.000   0.000   0.000   0.000   0.000
  0.000   0.000   0.000   0.000   0.000   0.000   0.000   0.000   0.179   0.000   0.000  -0.090   0.000   0.046   0.000   0.000
 -0.000   0.000   0.000   0.000   0.000   0.000   0.000   0.000   0.000   0.243   0.000   0.000  -0.090   0.000   0.066   0.000
 -0.000   0.000   0.000   0.000   0.000   0.000   0.000   0.000   0.000   0.000   0.115   0.000   0.000   0.000   0.000   0.027
  0.000   0.000   0.000   0.000   0.000   0.000   0.000   0.000  -0.090   0.000   0.000   0.243   0.000  -0.027   0.000   0.000
  0.000  -0.000   0.000   0.000   0.000   0.000   0.000   0.000   0.000  -0.090   0.000   0.000   0.179   0.000  -0.027   0.000
  0.000   0.000   0.000   0.000   0.000   0.000   0.000   0.000   0.046   0.000   0.000  -0.027   0.000   0.012   0.000   0.000
 -0.000   0.000   0.000   0.000   0.000   0.000   0.000   0.000   0.000   0.066   0.000   0.000  -0.027   0.000   0.018   0.000
 -0.000   0.000   0.000   0.000   0.000   0.000   0.000   0.000   0.000   0.000   0.027   0.000   0.000   0.000   0.000   0.007
  0.000   0.000   0.000   0.000   0.000   0.000   0.000   0.000  -0.027   0.000   0.000   0.066   0.000  -0.008   0.000   0.000
  0.000  -0.000   0.000   0.000   0.000   0.000   0.000   0.000   0.000  -0.027   0.000   0.000   0.046   0.000  -0.008   0.000
  0.000   0.000  -0.000  -0.050   0.000   0.000   0.055   0.000   0.000   0.000   0.000   0.000   0.000   0.000   0.000   0.000
  0.000   0.000   0.000   0.000  -0.061   0.000   0.000   0.067   0.000   0.000   0.000   0.000   0.000   0.000   0.000   0.000
  0.000   0.000   0.027   0.000   0.000  -0.030  -0.000   0.000   0.000   0.000   0.000   0.000   0.000   0.000   0.000   0.000
  0.000   0.000  -0.000  -0.044   0.000   0.000   0.049   0.000   0.000   0.000   0.000   0.000   0.000   0.000   0.000   0.000
  0.000   0.000   0.000   0.000   0.027   0.000   0.000  -0.030   0.000   0.000   0.000   0.000   0.000   0.000   0.000   0.000
  0.000   0.000  -0.061  -0.000   0.000   0.067   0.000   0.000   0.000   0.000   0.000   0.000   0.000   0.000   0.000   0.000
  0.000   0.000   0.000   0.000  -0.000   0.000   0.000   0.000   0.000   0.000   0.000   0.000   0.000   0.000   0.000   0.000
  0.000   0.000   0.000   0.052   0.000  -0.000  -0.054   0.000   0.000   0.000   0.000   0.000   0.000   0.000   0.000   0.000
  0.000   0.000   0.000   0.000   0.064   0.000   0.000  -0.067   0.000   0.000   0.000   0.000   0.000   0.000   0.000   0.000
  0.000   0.000  -0.029  -0.000   0.000   0.030   0.000   0.000   0.000   0.000   0.000   0.000   0.000   0.000   0.000   0.000
  0.000   0.000   0.000   0.047   0.000  -0.000  -0.049   0.000   0.000   0.000   0.000   0.000   0.000   0.000   0.000   0.000
  0.000   0.000   0.000   0.000  -0.029   0.000   0.000   0.030   0.000   0.000   0.000   0.000   0.000   0.000   0.000   0.000
  0.000   0.000   0.064   0.000   0.000  -0.067  -0.000   0.000   0.000   0.000   0.000   0.000   0.000   0.000   0.000   0.000
  0.000   0.000   0.000   0.000   0.000   0.000   0.000  -0.000   0.000   0.000   0.000   0.000   0.000   0.000   0.000   0.000
 total augmentation occupancy for first ion, spin component:           2
 -0.042  -0.159   0.000   0.000   0.000   0.000   0.000   0.000   0.000   0.000   0.000   0.000  -0.000   0.000   0.000  -0.000
 -0.159   0.120   0.000   0.000   0.000   0.000   0.000   0.000   0.000  -0.000  -0.000   0.000   0.000   0.000  -0.000   0.000
  0.000   0.000  -0.008   0.000   0.000  -0.043  -0.000   0.000   0.000   0.000   0.000   0.000   0.000   0.000   0.000   0.000
  0.000   0.000   0.000  -0.008   0.000  -0.000  -0.043   0.000   0.000   0.000   0.000   0.000   0.000   0.000   0.000   0.000
  0.000   0.000   0.000   0.000  -0.008   0.000   0.000  -0.043   0.000   0.000   0.000   0.000   0.000   0.000   0.000   0.000
  0.000   0.000  -0.043  -0.000   0.000   0.003   0.000   0.000   0.000   0.000   0.000   0.000   0.000   0.000   0.000   0.000
  0.000   0.000  -0.000  -0.043   0.000   0.000   0.003   0.000   0.000   0.000   0.000   0.000   0.000   0.000   0.000   0.000
  0.000   0.000   0.000   0.000  -0.043   0.000   0.000   0.003   0.000   0.000   0.000   0.000   0.000   0.000   0.000   0.000
  0.000   0.000   0.000   0.000   0.000   0.000   0.000   0.000   0.052   0.000   0.000   0.002   0.000   0.012   0.000   0.000
  0.000  -0.000   0.000   0.000   0.000   0.000   0.000   0.000   0.000   0.050   0.000   0.000   0.002   0.000   0.012   0.000
  0.000  -0.000   0.000   0.000   0.000   0.000   0.000   0.000   0.000   0.000   0.053   0.000   0.000   0.000   0.000   0.011
  0.000   0.000   0.000   0.000   0.000   0.000   0.000   0.000   0.002   0.000   0.000   0.050   0.000  -0.001   0.000   0.000
 -0.000   0.000   0.000   0.000   0.000   0.000   0.000   0.000   0.000   0.002   0.000   0.000   0.052   0.000  -0.001   0.000
  0.000   0.000   0.000   0.000   0.000   0.000   0.000   0.000   0.012   0.000   0.000  -0.001   0.000   0.003   0.000   0.000
  0.000  -0.000   0.000   0.000   0.000   0.000   0.000   0.000   0.000   0.012   0.000   0.000  -0.001   0.000   0.003   0.000
 -0.000   0.000   0.000   0.000   0.000   0.000   0.000   0.000   0.000   0.000   0.011   0.000   0.000   0.000   0.000   0.002
  0.000   0.000   0.000   0.000   0.000   0.000   0.000   0.000  -0.001   0.000   0.000   0.012   0.000  -0.001   0.000   0.000
 -0.000   0.000   0.000   0.000   0.000   0.000   0.000   0.000   0.000  -0.001   0.000   0.000   0.012   0.000  -0.001   0.000
  0.000   0.000  -0.000  -0.007   0.000   0.000   0.009   0.000   0.000   0.000   0.000   0.000   0.000   0.000   0.000   0.000
  0.000   0.000   0.000   0.000  -0.008   0.000   0.000   0.011   0.000   0.000   0.000   0.000   0.000   0.000   0.000   0.000
  0.000   0.000   0.004   0.000   0.000  -0.005  -0.000   0.000   0.000   0.000   0.000   0.000   0.000   0.000   0.000   0.000
  0.000   0.000  -0.000  -0.006   0.000   0.000   0.008   0.000   0.000   0.000   0.000   0.000   0.000   0.000   0.000   0.000
  0.000   0.000   0.000   0.000   0.004   0.000   0.000  -0.005   0.000   0.000   0.000   0.000   0.000   0.000   0.000   0.000
  0.000   0.000  -0.008  -0.000   0.000   0.011   0.000   0.000   0.000   0.000   0.000   0.000   0.000   0.000   0.000   0.000
  0.000   0.000   0.000   0.000  -0.000   0.000   0.000   0.000   0.000   0.000   0.000   0.000   0.000   0.000   0.000   0.000
  0.000   0.000   0.000   0.000   0.000  -0.000  -0.003   0.000   0.000   0.000   0.000   0.000   0.000   0.000   0.000   0.000
  0.000   0.000   0.000   0.000   0.001   0.000   0.000  -0.003   0.000   0.000   0.000   0.000   0.000   0.000   0.000   0.000
  0.000   0.000  -0.000  -0.000   0.000   0.001   0.000   0.000   0.000   0.000   0.000   0.000   0.000   0.000   0.000   0.000
  0.000   0.000   0.000   0.000   0.000  -0.000  -0.002   0.000   0.000   0.000   0.000   0.000   0.000   0.000   0.000   0.000
  0.000   0.000   0.000   0.000  -0.000   0.000   0.000   0.001   0.000   0.000   0.000   0.000   0.000   0.000   0.000   0.000
  0.000   0.000   0.001   0.000   0.000  -0.003  -0.000   0.000   0.000   0.000   0.000   0.000   0.000   0.000   0.000   0.000
  0.000   0.000   0.000   0.000   0.000   0.000   0.000  -0.000   0.000   0.000   0.000   0.000   0.000   0.000   0.000   0.000


------------------------ aborting loop because EDIFF is reached ----------------------------------------


 


 total charge     
 
# of ion       s       p       d       f       tot
--------------------------------------------------
    1        2.080   5.875   0.503   6.730  15.189
    2        1.317   2.452   0.000   0.000   3.769
--------------------------------------------------
tot          3.397   8.327   0.503   6.730  18.957

 


 magnetization (x)
 
# of ion       s       p       d       f       tot
--------------------------------------------------
    1       -0.008  -0.012   0.145   6.672   6.797
    2       -0.008  -0.068   0.000   0.000  -0.075
--------------------------------------------------
tot         -0.015  -0.080   0.145   6.672   6.722

 
    CHARGE:  cpu time    0.4968: real time    0.4979
    FORLOC:  cpu time    0.0012: real time    0.0012
    FORNL :  cpu time    3.1853: real time    3.1928
    STRESS:  cpu time    9.4793: real time    9.5017
    FORCOR:  cpu time    0.0341: real time    0.0342
    FORHAR:  cpu time    0.0039: real time    0.0039
    MIXING:  cpu time    0.0016: real time    0.0016
    OFIELD:  cpu time    0.0000: real time    0.0000

  FORCE on cell =-STRESS in cart. coord.  units (eV):
  Direction    XX          YY          ZZ          XY          YZ          ZX
  --------------------------------------------------------------------------------------
  Alpha Z   149.72846   149.72846   149.72846
  Ewald    -703.12647  -703.12648  -703.12648     0.00000    -0.00002     0.00000
  Hartree   256.05274   256.05718   256.05540     0.00000     0.00226     0.00000
  E(xc)    -113.19660  -113.19661  -113.19660     0.00000    -0.00001     0.00000
  Local     125.16621   125.15658   125.16111     0.00001    -0.00626     0.00000
  n-local   -15.29446   -15.29100   -15.29240    -0.15664     0.00171     0.09227
  augment    24.82693    24.82902    24.82844    -0.00000     0.00047    -0.00000
  Kinetic   276.06675   276.06570   276.06475     2.28870     0.00246     2.94025
  Fock        0.00000     0.00000     0.00000     0.00000     0.00000     0.00000
  -------------------------------------------------------------------------------------
  Total       0.22356     0.22286     0.22268     0.00000     0.00061     0.00000
  in kB       7.17526     7.15295     7.14703     0.00000     0.01973     0.00000
  external pressure =        7.16 kB  Pullay stress =        0.00 kB


 VOLUME and BASIS-vectors are now :
 -----------------------------------------------------------------------------
  energy-cutoff  :      520.00
  volume of cell :       49.92
      direct lattice vectors                 reciprocal lattice vectors
     4.132930000  0.000000000  0.000000000     0.241959094 -0.139695124 -0.098779407
     2.066465000  3.579223000  0.000000000     0.000000000  0.279390248 -0.098779365
     2.066465000  1.193074000  3.374523000     0.000000000  0.000000000  0.296338179

  length of vectors
     4.132930000  4.132930544  4.132929789     0.296338155  0.296338107  0.296338179


 FORCES acting on ions
    electron-ion (+dipol)            ewald-force                    non-local-force                 convergence-correction
 -----------------------------------------------------------------------------------------------
   -.334E-14 -.412E-14 0.149E-13   0.241E-15 -.382E-14 -.314E-14   0.000E+00 -.662E-23 0.000E+00   0.387E-13 -.175E-14 0.818E-13
   -.117E-11 0.735E-12 0.230E-12   0.483E-14 0.293E-14 0.125E-14   0.248E-23 -.579E-23 0.000E+00   0.646E-14 -.105E-14 -.895E-15
 -----------------------------------------------------------------------------------------------
   -.117E-11 0.731E-12 0.245E-12   0.507E-14 -.890E-15 -.189E-14   0.248E-23 -.124E-22 0.000E+00   0.451E-13 -.281E-14 0.809E-13
 
 
 POSITION                                       TOTAL-FORCE (eV/Angst)
 -----------------------------------------------------------------------------------
      0.00000      0.00000      0.00000         0.000000      0.000000      0.000000
      4.13293      2.38615      1.68726        -0.000000     -0.000000      0.000000
 -----------------------------------------------------------------------------------
    total drift:                               -0.000000      0.000000      0.000000


--------------------------------------------------------------------------------------------------------



  FREE ENERGIE OF THE ION-ELECTRON SYSTEM (eV)
  ---------------------------------------------------
  free  energy   TOTEN  =       -18.75890449 eV

  energy  without entropy=      -18.75890449  energy(sigma->0) =      -18.75890449
 


--------------------------------------------------------------------------------------------------------


    POTLOK:  cpu time    1.1308: real time    1.1335


--------------------------------------------------------------------------------------------------------


     LOOP+:  cpu time  274.4146: real time  275.1132
    4ORBIT:  cpu time    0.0000: real time    0.0000
 


 total charge     
 
# of ion       s       p       d       f       tot
--------------------------------------------------
    1        2.080   5.875   0.503   6.730  15.189
    2        1.317   2.452   0.000   0.000   3.769
--------------------------------------------------
tot          3.397   8.327   0.503   6.730  18.957

 


 magnetization (x)
 
# of ion       s       p       d       f       tot
--------------------------------------------------
    1       -0.008  -0.012   0.145   6.672   6.797
    2       -0.008  -0.068   0.000   0.000  -0.075
--------------------------------------------------
tot         -0.015  -0.080   0.145   6.672   6.722

 
 BZINTS: Fermi energy:  4.639225; 23.000000 electrons
         Band energy:-137.461083;  BLOECHL correction: -0.001245

 total amount of memory used by VASP MPI-rank0    80227. kBytes
=======================================================================

   base      :      30000. kBytes
   nonlr-proj:       1370. kBytes
   fftplans  :       1372. kBytes
   grid      :       3350. kBytes
   one-center:         98. kBytes
   wavefun   :      44037. kBytes
 
  
  
 General timing and accounting informations for this job:
 ========================================================
  
                  Total CPU time used (sec):      279.864
                            User time (sec):      277.987
                          System time (sec):        1.878
                         Elapsed time (sec):      281.080
  
                   Maximum memory used (kb):      126376.
                   Average memory used (kb):           0.
  
                          Minor page faults:        45574
                          Major page faults:            0
                 Voluntary context switches:          214
