=========================================
SLURM_JOB_ID = 38092325
SLURM_JOB_NODELIST = lnode38
SLURM_GPUS = 
SLURM_CPUS_ON_NODE = 8
SLURM_JOB_PARTITION = lenovo
SLURM_TASK_PID = 3628416
CUDA_VISIBLE_DEVICES = 
==========================================
 running on    8 total cores
 distrk:  each k-point on    8 cores,    1 groups
 distr:  one band on    4 cores,    2 groups
 using from now: INCAR     
 vasp.5.4.4.18Apr17-6-g9f103f2a35 (build Apr 28 2018 00:24:27) complex          
  
 POSCAR found type information on POSCAR  Eu S 
 POSCAR found :  2 types and       8 ions
 scaLAPACK will be used

 ----------------------------------------------------------------------------- 
|                                                                             |
|  ADVICE TO THIS USER RUNNING 'VASP/VAMP'   (HEAR YOUR MASTER'S VOICE ...):  |
|                                                                             |
|      You have a (more or less) 'small supercell' and for smaller cells      |
|      it is recommended  to use the reciprocal-space projection scheme!      |
|      The real space optimization is not  efficient for small cells and it   |
|      is also less accurate ...                                              |
|      Therefore set LREAL=.FALSE. in the  INCAR file                         |
|                                                                             |
 ----------------------------------------------------------------------------- 

 LDA part: xc-table for Pade appr. of Perdew
 POSCAR, INCAR and KPOINTS ok, starting setup
 FFT: planning ...
 WAVECAR not read
 entering main loop
       N       E                     dE             d eps       ncg     rms          rms(c)
DAV:   1     0.116715248635E+04    0.11672E+04   -0.31499E+04 37936   0.314E+03
DAV:   2     0.303602078710E+03   -0.86355E+03   -0.78766E+03 45808   0.632E+02
DAV:   3    -0.126932055818E+02   -0.31630E+03   -0.30912E+03 50888   0.334E+02
DAV:   4    -0.596631979820E+02   -0.46970E+02   -0.46062E+02 60776   0.125E+02
DAV:   5    -0.639090105372E+02   -0.42458E+01   -0.40908E+01 66216   0.395E+01    0.274E+01
RMM:   6    -0.683929864829E+02   -0.44840E+01   -0.10633E+02 44005   0.781E+01    0.422E+01
RMM:   7    -0.715933735793E+02   -0.32004E+01   -0.19309E+01 41573   0.386E+01    0.176E+01
RMM:   8    -0.727937629685E+02   -0.12004E+01   -0.15044E+01 43787   0.298E+01    0.671E+00
RMM:   9    -0.746463565962E+02   -0.18526E+01   -0.71229E+00 45364   0.194E+01    0.775E+00
RMM:  10    -0.745661428529E+02    0.80214E-01   -0.16611E+00 46793   0.105E+01    0.416E+00
RMM:  11    -0.749585395388E+02   -0.39240E+00   -0.96250E-01 49905   0.585E+00    0.413E+00
RMM:  12    -0.749534147118E+02    0.51248E-02   -0.26820E-01 53328   0.362E+00    0.326E+00
RMM:  13    -0.749385500207E+02    0.14865E-01   -0.24585E-01 51538   0.285E+00    0.212E+00
RMM:  14    -0.749535817031E+02   -0.15032E-01   -0.17321E-01 51864   0.233E+00    0.154E+00
RMM:  15    -0.749612090038E+02   -0.76273E-02   -0.10366E-01 51923   0.189E+00    0.847E-01
RMM:  16    -0.749720792769E+02   -0.10870E-01   -0.62974E-02 55027   0.126E+00    0.445E-01
RMM:  17    -0.749748095866E+02   -0.27303E-02   -0.30162E-02 56407   0.770E-01    0.161E-01
RMM:  18    -0.749768024254E+02   -0.19928E-02   -0.20510E-02 53272   0.474E-01    0.127E-01
RMM:  19    -0.749778384165E+02   -0.10360E-02   -0.11234E-02 46349   0.417E-01    0.529E-02
RMM:  20    -0.749786756823E+02   -0.83727E-03   -0.89600E-03 41299   0.338E-01    0.355E-02
RMM:  21    -0.749792360001E+02   -0.56032E-03   -0.58123E-03 37984   0.338E-01    0.298E-02
RMM:  22    -0.749797174005E+02   -0.48140E-03   -0.49581E-03 35323   0.309E-01    0.266E-02
RMM:  23    -0.749800552156E+02   -0.33782E-03   -0.34575E-03 32973   0.307E-01    0.175E-02
WARNING in EDDRMM: call to ZHEGV failed, returncode =   6  3     23
RMM:  24    -0.749803453783E+02   -0.29016E-03   -0.30323E-03 32651   0.298E-01    0.133E-02
RMM:  25    -0.749805580306E+02   -0.21265E-03   -0.22429E-03 31766   0.273E-01    0.117E-02
RMM:  26    -0.749807401087E+02   -0.18208E-03   -0.19461E-03 31254   0.248E-01    0.162E-02
RMM:  27    -0.749808725989E+02   -0.13249E-03   -0.14337E-03 29903   0.222E-01    0.289E-02
RMM:  28    -0.749809874264E+02   -0.11483E-03   -0.12502E-03 29835   0.213E-01    0.316E-02
RMM:  29    -0.749810726606E+02   -0.85234E-04   -0.93867E-04 29187   0.205E-01
   1 F= -.74981073E+02 E0= -.74980959E+02  d E =-.749811E+02  mag=    -0.0003
 curvature:   0.00 expect dE= 0.000E+00 dE for cont linesearch  0.000E+00
 trial: gam= 0.00000 g(F)=  0.187E-03 g(S)=  0.120E-03 ort = 0.000E+00 (trialstep = 0.100E+01)
 search vector abs. value=  0.307E-03
 bond charge predicted
       N       E                     dE             d eps       ncg     rms          rms(c)
DAV:   1    -0.749810409158E+02   -0.53489E-04   -0.35850E-02 58632   0.271E+00    0.234E-01
RMM:   2    -0.749818173528E+02   -0.77644E-03   -0.70688E-03 44723   0.489E-01    0.107E-01
RMM:   3    -0.749817750258E+02    0.42327E-04   -0.99914E-04 35519   0.272E-01
   2 F= -.74981775E+02 E0= -.74981661E+02  d E =-.702365E-03  mag=    -0.0001
 ZBRENT: can't locate minimum, use default step
 trial-energy change:   -0.000702  1 .order   -0.000306   -0.000307   -0.000304
 step:   4.0000(harm= 87.2076)  dis= 0.00470  next Energy=   -74.994475 (dE=-0.134E-01)
 bond charge predicted
       N       E                     dE             d eps       ncg     rms          rms(c)
DAV:   1    -0.749752006751E+02    0.66167E-02   -0.27810E-01 58568   0.796E+00    0.660E-01
RMM:   2    -0.749820800272E+02   -0.68794E-02   -0.59804E-02 50226   0.163E+00    0.303E-01
RMM:   3    -0.749824956674E+02   -0.41564E-03   -0.11463E-02 50603   0.585E-01    0.269E-01
RMM:   4    -0.749827075992E+02   -0.21193E-03   -0.21945E-03 39752   0.369E-01    0.394E-01
RMM:   5    -0.749819795300E+02    0.72807E-03   -0.89078E-04 33889   0.320E-01    0.482E-02
RMM:   6    -0.749820485626E+02   -0.69033E-04   -0.47130E-04 28391   0.236E-01
   3 F= -.74982049E+02 E0= -.74981937E+02  d E =-.975902E-03  mag=     0.0001
 curvature:  -2.98 expect dE=-0.196E-02 dE for cont linesearch -0.153E-02
 ZBRENT: increasing intervall
 opt :  10.0000  next Energy=   -74.984997 (dE=-0.392E-02)
 bond charge predicted
       N       E                     dE             d eps       ncg     rms          rms(c)
DAV:   1    -0.749524093599E+02    0.29570E-01   -0.11177E+00 54984   0.161E+01    0.132E+00
RMM:   2    -0.749802814574E+02   -0.27872E-01   -0.24916E-01 51032   0.296E+00    0.582E-01
RMM:   3    -0.749813312015E+02   -0.10497E-02   -0.51607E-02 56735   0.120E+00    0.396E-01
RMM:   4    -0.749840663928E+02   -0.27352E-02   -0.10295E-02 49303   0.719E-01    0.961E-01
RMM:   5    -0.749800566157E+02    0.40098E-02   -0.44980E-03 45080   0.553E-01    0.101E-01
RMM:   6    -0.749803326057E+02   -0.27599E-03   -0.23110E-03 43796   0.309E-01    0.123E-01
RMM:   7    -0.749803917739E+02   -0.59168E-04   -0.10276E-03 34422   0.249E-01    0.353E-02
RMM:   8    -0.749804198815E+02   -0.28108E-04   -0.37143E-04 27400   0.215E-01
   4 F= -.74980420E+02 E0= -.74980311E+02  d E =0.652779E-03  mag=    -0.0000
 curvature:  -5.73 expect dE=-0.332E-02 dE for cont linesearch -0.318E-02
 ZBRENT: bracketing found
 ZBRENT: interpolating
 opt :   6.9430  next Energy=   -74.982634 (dE=-0.156E-02)
 bond charge predicted
       N       E                     dE             d eps       ncg     rms          rms(c)
DAV:   1    -0.749751129768E+02    0.52788E-02   -0.29902E-01 55040   0.807E+00    0.674E-01
RMM:   2    -0.749818227102E+02   -0.67097E-02   -0.59681E-02 50270   0.146E+00    0.299E-01
RMM:   3    -0.749819681280E+02   -0.14542E-03   -0.10165E-02 46875   0.633E-01    0.145E-01
RMM:   4    -0.749829209663E+02   -0.95284E-03   -0.23510E-03 37848   0.399E-01    0.618E-01
RMM:   5    -0.749815718364E+02    0.13491E-02   -0.92558E-04 30216   0.330E-01    0.431E-02
RMM:   6    -0.749816833874E+02   -0.11155E-03   -0.29655E-04 23305   0.222E-01    0.678E-02
RMM:   7    -0.749816806213E+02    0.27660E-05   -0.14706E-04 21050   0.226E-01
   5 F= -.74981681E+02 E0= -.74981570E+02  d E =-.607961E-03  mag=    -0.0002
 curvature:  -1.05 expect dE=-0.706E-03 dE for cont linesearch -0.694E-03
 ZBRENT: interpolating
 opt :   5.3808  next Energy=   -74.982323 (dE=-0.125E-02)
 bond charge predicted
       N       E                     dE             d eps       ncg     rms          rms(c)
DAV:   1    -0.749802428125E+02    0.14406E-02   -0.75847E-02 60136   0.416E+00    0.342E-01
RMM:   2    -0.749821204407E+02   -0.18776E-02   -0.15667E-02 48235   0.743E-01    0.195E-01
RMM:   3    -0.749832629796E+02   -0.11425E-02   -0.30088E-03 41418   0.448E-01    0.625E-01
RMM:   4    -0.749819595341E+02    0.13034E-02   -0.10147E-03 30872   0.333E-01    0.603E-02
RMM:   5    -0.749820016443E+02   -0.42110E-04   -0.23444E-04 22530   0.224E-01
   6 F= -.74982002E+02 E0= -.74981894E+02  d E =-.928984E-03  mag=    -0.0001
 curvature:  -0.42 expect dE=-0.815E-04 dE for cont linesearch -0.617E-04
 ZBRENT: interpolating
 opt :   4.8989  next Energy=   -74.982053 (dE=-0.980E-03)
 bond charge predicted
       N       E                     dE             d eps       ncg     rms          rms(c)
DAV:   1    -0.749819218935E+02    0.37641E-04   -0.76689E-03 60728   0.136E+00    0.104E-01
RMM:   2    -0.749821956256E+02   -0.27373E-03   -0.14494E-03 34535   0.228E-01    0.181E-01
RMM:   3    -0.749821940026E+02    0.16231E-05   -0.30603E-04 26742   0.250E-01
   7 F= -.74982194E+02 E0= -.74982090E+02  d E =-.112134E-02  mag=    -0.0000
 curvature:  -0.35 expect dE=-0.225E-03 dE for cont linesearch -0.704E-04
 ZBRENT: bisectioning
 opt :   4.4494  next Energy=   -74.982314 (dE=-0.124E-02)
 bond charge predicted
       N       E                     dE             d eps       ncg     rms          rms(c)
DAV:   1    -0.749819992883E+02    0.19634E-03   -0.66809E-03 65200   0.120E+00    0.110E-01
RMM:   2    -0.749821892875E+02   -0.19000E-03   -0.13302E-03 33943   0.221E-01    0.142E-01
RMM:   3    -0.749823074070E+02   -0.11812E-03   -0.30869E-04 26277   0.257E-01    0.231E-01
RMM:   4    -0.749821037494E+02    0.20366E-03   -0.98811E-05 20115   0.222E-01    0.276E-02
RMM:   5    -0.749821104215E+02   -0.66721E-05   -0.13673E-05 19442   0.180E-01
   8 F= -.74982110E+02 E0= -.74981999E+02  d E =-.103776E-02  mag=     0.0001
 curvature:  -0.59 expect dE=-0.367E-03 dE for cont linesearch -0.168E-03
 ZBRENT: bisectioning
 opt :   4.2247  next Energy=   -74.982179 (dE=-0.111E-02)
 bond charge predicted
       N       E                     dE             d eps       ncg     rms          rms(c)
DAV:   1    -0.749820833323E+02    0.20417E-04   -0.11737E-03 41184   0.559E-01    0.514E-02
RMM:   2    -0.749821982593E+02   -0.11493E-03   -0.38581E-04 24293   0.160E-01    0.145E-01
RMM:   3    -0.749821302589E+02    0.68000E-04   -0.97605E-05 19639   0.176E-01
   9 F= -.74982130E+02 E0= -.74982019E+02  d E =-.105760E-02  mag=    -0.0001
 curvature:  -0.24 expect dE=-0.257E-04 dE for cont linesearch -0.332E-07
 trial: gam= 0.36502 g(F)=  0.379E-04 g(S)=  0.679E-04 ort =-0.648E-05 (trialstep = 0.164E+01)
 search vector abs. value=  0.142E-03
 bond charge predicted
       N       E                     dE             d eps       ncg     rms          rms(c)
DAV:   1    -0.749809639223E+02    0.12343E-02   -0.39563E-02 57920   0.198E+00    0.273E-01
RMM:   2    -0.749820071261E+02   -0.10432E-02   -0.54386E-03 43028   0.436E-01    0.139E-01
RMM:   3    -0.749825704576E+02   -0.56333E-03   -0.10395E-03 32025   0.314E-01    0.398E-01
RMM:   4    -0.749820208382E+02    0.54962E-03   -0.34517E-04 24933   0.238E-01    0.323E-02
RMM:   5    -0.749820477269E+02   -0.26889E-04   -0.74145E-05 19684   0.167E-01
  10 F= -.74982048E+02 E0= -.74981937E+02  d E =0.825320E-04  mag=    -0.0001
 trial-energy change:    0.000083  1 .order   -0.000003   -0.000170    0.000163
 step:   0.8395(harm=  0.8395)  dis= 0.00081  next Energy=   -74.982174 (dE=-0.434E-04)
 bond charge predicted
       N       E                     dE             d eps       ncg     rms          rms(c)
DAV:   1    -0.749818607848E+02    0.16005E-03   -0.10312E-02 58424   0.102E+00    0.139E-01
RMM:   2    -0.749821077095E+02   -0.24692E-03   -0.11479E-03 33798   0.215E-01    0.860E-02
RMM:   3    -0.749823359553E+02   -0.22825E-03   -0.22542E-04 23029   0.208E-01    0.246E-01
RMM:   4    -0.749821006470E+02    0.23531E-03   -0.12007E-04 19915   0.192E-01    0.205E-02
RMM:   5    -0.749821160248E+02   -0.15378E-04   -0.30900E-05 18346   0.135E-01
  11 F= -.74982116E+02 E0= -.74982004E+02  d E =0.142341E-04  mag=    -0.0002
 curvature:  -0.58 expect dE=-0.623E-04 dE for cont linesearch -0.169E-04
 ZBRENT: interpolating
 opt :   0.5168  next Energy=   -74.982126 (dE= 0.382E-05)
 bond charge predicted
       N       E                     dE             d eps       ncg     rms          rms(c)
DAV:   1    -0.749820780267E+02    0.22620E-04   -0.14965E-03 43000   0.407E-01    0.542E-02
RMM:   2    -0.749821225472E+02   -0.44520E-04   -0.18224E-04 18854   0.128E-01
  12 F= -.74982123E+02 E0= -.74982011E+02  d E =0.771168E-05  mag=    -0.0008
 curvature:  -0.35 expect dE=-0.244E-05 dE for cont linesearch -0.218E-05
 trial: gam=-0.13836 g(F)=  0.613E-05 g(S)=  0.734E-06 ort = 0.296E-04 (trialstep = 0.142E+01)
 search vector abs. value=  0.140E-05
 reached required accuracy - stopping structural energy minimisation
