=========================================
SLURM_JOB_ID = 33323423
SLURM_JOB_NODELIST = lnode29
SLURM_GPUS = 
SLURM_CPUS_ON_NODE = 8
SLURM_JOB_PARTITION = lenovo
SLURM_TASK_PID = 1362716
CUDA_VISIBLE_DEVICES = 
==========================================
 running on    8 total cores
 distrk:  each k-point on    8 cores,    1 groups
 distr:  one band on    4 cores,    2 groups
 using from now: INCAR     
 vasp.5.4.4.18Apr17-6-g9f103f2a35 (build Apr 28 2018 00:24:27) complex          
  
 POSCAR found type information on POSCAR  Eu O 
 POSCAR found :  2 types and       4 ions
 scaLAPACK will be used

 ----------------------------------------------------------------------------- 
|                                                                             |
|  ADVICE TO THIS USER RUNNING 'VASP/VAMP'   (HEAR YOUR MASTER'S VOICE ...):  |
|                                                                             |
|      You have a (more or less) 'small supercell' and for smaller cells      |
|      it is recommended  to use the reciprocal-space projection scheme!      |
|      The real space optimization is not  efficient for small cells and it   |
|      is also less accurate ...                                              |
|      Therefore set LREAL=.FALSE. in the  INCAR file                         |
|                                                                             |
 ----------------------------------------------------------------------------- 

 LDA part: xc-table for Pade appr. of Perdew
 POSCAR, INCAR and KPOINTS ok, starting setup
 FFT: planning ...
 WAVECAR not read
 WARNING: random wavefunctions but no delay for mixing, default for NELMDL
 entering main loop
       N       E                     dE             d eps       ncg     rms          rms(c)
DAV:   1     0.443565349987E+03    0.44357E+03   -0.18439E+04 64304   0.357E+03
DAV:   2     0.557300776249E+02   -0.38784E+03   -0.36255E+03 73472   0.422E+02
DAV:   3    -0.363796613706E+02   -0.92110E+02   -0.90134E+02 91780   0.267E+02
DAV:   4    -0.442373630957E+02   -0.78577E+01   -0.74241E+01 94784   0.693E+01
DAV:   5    -0.451525580871E+02   -0.91519E+00   -0.84917E+00 99784   0.197E+01    0.283E+01
DAV:   6    -0.101747983437E+03   -0.56595E+02   -0.84510E+02 90120   0.250E+02    0.115E+02
DAV:   7    -0.279878479922E+02    0.73760E+02   -0.49050E+02 83628   0.124E+02    0.286E+01
DAV:   8    -0.410398581625E+02   -0.13052E+02   -0.14080E+02 88220   0.748E+01    0.261E+01
DAV:   9    -0.412511515520E+02   -0.21129E+00   -0.39171E+01 89448   0.592E+01    0.191E+01
DAV:  10    -0.414746341775E+02   -0.22348E+00   -0.32477E+00 90204   0.141E+01    0.128E+01
DAV:  11    -0.416505030328E+02   -0.17587E+00   -0.28934E+00 92568   0.130E+01    0.670E+00
DAV:  12    -0.416813721217E+02   -0.30869E-01   -0.36075E-01 99768   0.614E+00    0.523E+00
DAV:  13    -0.416590893115E+02    0.22283E-01   -0.36805E-01 95416   0.587E+00    0.251E+00
DAV:  14    -0.416486716082E+02    0.10418E-01   -0.16014E-01100240   0.390E+00    0.131E+00
DAV:  15    -0.416438558542E+02    0.48158E-02   -0.43723E-02 94476   0.170E+00    0.921E-01
DAV:  16    -0.416399036382E+02    0.39522E-02   -0.11706E-02100288   0.111E+00    0.644E-01
DAV:  17    -0.416376197716E+02    0.22839E-02   -0.72958E-03101472   0.785E-01    0.516E-01
DAV:  18    -0.416367284347E+02    0.89134E-03   -0.41809E-03 91708   0.622E-01    0.392E-01
DAV:  19    -0.416371266671E+02   -0.39823E-03   -0.46049E-04101704   0.199E-01    0.275E-01
DAV:  20    -0.416372845235E+02   -0.15786E-03   -0.38314E-04 91580   0.191E-01    0.122E-01
DAV:  21    -0.416372849331E+02   -0.40952E-06   -0.29933E-04105584   0.165E-01    0.373E-02
DAV:  22    -0.416372707106E+02    0.14222E-04   -0.26902E-05 96888   0.563E-02    0.315E-02
DAV:  23    -0.416372543372E+02    0.16373E-04   -0.15586E-05 82852   0.472E-02    0.154E-02
DAV:  24    -0.416372499921E+02    0.43451E-05   -0.22668E-06 49384   0.256E-02    0.148E-02
DAV:  25    -0.416372506190E+02   -0.62696E-06   -0.44898E-07 40488   0.238E-02
   1 F= -.41637251E+02 E0= -.41637251E+02  d E =0.000000E+00  mag=    -0.0001
