 vasp.5.4.4.18Apr17-6-g9f103f2a35 (build Apr 28 2018 00:24:27) complex          
  
 executed on             LinuxIFC date 2021.03.28  01:29:28
 running on    8 total cores
 distrk:  each k-point on    8 cores,    1 groups
 distr:  one band on NCORES_PER_BAND=   1 cores,    8 groups


--------------------------------------------------------------------------------------------------------


 INCAR:
 POTCAR:    PAW_PBE Eu 23Dec2003                  
 POTCAR:    PAW_PBE O 08Apr2002                   

 ----------------------------------------------------------------------------- 
|                                                                             |
|           W    W    AA    RRRRR   N    N  II  N    N   GGGG   !!!           |
|           W    W   A  A   R    R  NN   N  II  NN   N  G    G  !!!           |
|           W    W  A    A  R    R  N N  N  II  N N  N  G       !!!           |
|           W WW W  AAAAAA  RRRRR   N  N N  II  N  N N  G  GGG   !            |
|           WW  WW  A    A  R   R   N   NN  II  N   NN  G    G                |
|           W    W  A    A  R    R  N    N  II  N    N   GGGG   !!!           |
|                                                                             |
|      For optimal performance we recommend to set                            |
|        NCORE= 4 - approx SQRT( number of cores)                             |
|      NCORE specifies how many cores store one orbital (NPAR=cpu/NCORE).     |
|      This setting can  greatly improve the performance of VASP for DFT.     |
|      The default,   NCORE=1            might be grossly inefficient         |
|      on modern multi-core architectures or massively parallel machines.     |
|      Do your own testing !!!!                                               |
|      Unfortunately you need to use the default for GW and RPA calculations. |
|      (for HF NCORE is supported but not extensively tested yet)             |
|                                                                             |
 ----------------------------------------------------------------------------- 

 POTCAR:    PAW_PBE Eu 23Dec2003                  
   VRHFIN =Eu : [core=Kr4d]                                                     
   LEXCH  = PE                                                                  
   EATOM  =  2619.8085 eV,  192.5505 Ry                                         
                                                                                
   TITEL  = PAW_PBE Eu 23Dec2003                                                
   LULTRA =        F    use ultrasoft PP ?                                      
   IUNSCR =        1    unscreen: 0-lin 1-nonlin 2-no                           
   RPACOR =    2.300    partial core radius                                     
   POMASS =  151.965; ZVAL   =   17.000    mass and valenz                      
   RCORE  =    2.800    outmost cutoff radius                                   
   RWIGS  =    2.800; RWIGS  =    1.482    wigner-seitz radius (au A)           
   ENMAX  =  249.668; ENMIN  =  187.251 eV                                      
   RCLOC  =    2.308    cutoff for local pot                                    
   LCOR   =        T    correct aug charges                                     
   LPAW   =        T    paw PP                                                  
   EAUG   =  549.628                                                            
   DEXC   =    0.000                                                            
   RMAX   =    2.870    core radius for proj-oper                               
   RAUG   =    1.300    factor for augmentation sphere                          
   RDEP   =    2.887    radius for radial grids                                 
   RDEPT  =    2.221    core radius for aug-charge                              
                                                                                
   Atomic configuration                                                         
   14 entries                                                                   
     n  l   j            E        occ.                                          
     1  0  0.50    -48354.7667   2.0000                                         
     2  0  0.50     -7939.6472   2.0000                                         
     2  1  1.50     -7072.6637   6.0000                                         
     3  0  0.50     -1747.1875   2.0000                                         
     3  1  1.50     -1477.5221   6.0000                                         
     3  2  2.50     -1117.4686  10.0000                                         
     4  0  0.50      -346.8682   2.0000                                         
     4  1  1.50      -258.1962   6.0000                                         
     4  2  2.50      -134.7724  10.0000                                         
     5  0  0.50       -44.6510   2.0000                                         
     6  0  0.50        -3.6227   2.0000                                         
     5  1  1.50       -23.7639   6.0000                                         
     5  2  2.50        -1.3130   0.0000                                         
     4  3  2.50        -2.7310   7.0000                                         
   Description                                                                  
     l       E           TYP  RCUT    TYP  RCUT                                 
     0    -44.6510453     23  2.400                                             
     0     -3.6226685     23  2.400                                             
     1    -23.7638687     23  2.400                                             
     1     27.2116520     23  2.400                                             
     2     -1.3129622     23  2.500                                             
     2     13.6058260     23  2.500                                             
     3     -2.7309948     23  2.800                                             
     3     -3.4014565     23  2.800                                             
  local pseudopotential read in
  partial core-charges read in
  partial kinetic energy density read in
  atomic valenz-charges read in
  non local Contribution for L=           0  read in
    real space projection operators read in
  non local Contribution for L=           0  read in
    real space projection operators read in
  non local Contribution for L=           1  read in
    real space projection operators read in
  non local Contribution for L=           1  read in
    real space projection operators read in
  non local Contribution for L=           2  read in
    real space projection operators read in
  non local Contribution for L=           2  read in
    real space projection operators read in
  non local Contribution for L=           3  read in
    real space projection operators read in
  non local Contribution for L=           3  read in
    real space projection operators read in
    PAW grid and wavefunctions read in
 
   number of l-projection  operators is LMAX  =           8
   number of lm-projection operators is LMMAX =          32
 
 POTCAR:    PAW_PBE O 08Apr2002                   
   VRHFIN =O: s2p4                                                              
   LEXCH  = PE                                                                  
   EATOM  =   432.3788 eV,   31.7789 Ry                                         
                                                                                
   TITEL  = PAW_PBE O 08Apr2002                                                 
   LULTRA =        F    use ultrasoft PP ?                                      
   IUNSCR =        1    unscreen: 0-lin 1-nonlin 2-no                           
   RPACOR =    1.200    partial core radius                                     
   POMASS =   16.000; ZVAL   =    6.000    mass and valenz                      
   RCORE  =    1.520    outmost cutoff radius                                   
   RWIGS  =    1.550; RWIGS  =    0.820    wigner-seitz radius (au A)           
   ENMAX  =  400.000; ENMIN  =  300.000 eV                                      
   ICORE  =        2    local potential                                         
   LCOR   =        T    correct aug charges                                     
   LPAW   =        T    paw PP                                                  
   EAUG   =  605.392                                                            
   DEXC   =    0.000                                                            
   RMAX   =    1.553    core radius for proj-oper                               
   RAUG   =    1.300    factor for augmentation sphere                          
   RDEP   =    1.550    radius for radial grids                                 
   RDEPT  =    1.329    core radius for aug-charge                              
                                                                                
   Atomic configuration                                                         
    4 entries                                                                   
     n  l   j            E        occ.                                          
     1  0  0.50      -514.6923   2.0000                                         
     2  0  0.50       -23.9615   2.0000                                         
     2  1  0.50        -9.0305   4.0000                                         
     3  2  1.50        -9.5241   0.0000                                         
   Description                                                                  
     l       E           TYP  RCUT    TYP  RCUT                                 
     0    -23.9615318     23  1.200                                             
     0     -9.5240782     23  1.200                                             
     1     -9.0304911     23  1.520                                             
     1      8.1634956     23  1.520                                             
     2     -9.5240782      7  1.500                                             
  local pseudopotential read in
  partial core-charges read in
  partial kinetic energy density read in
  kinetic energy density of atom read in
  atomic valenz-charges read in
  non local Contribution for L=           0  read in
    real space projection operators read in
  non local Contribution for L=           0  read in
    real space projection operators read in
  non local Contribution for L=           1  read in
    real space projection operators read in
  non local Contribution for L=           1  read in
    real space projection operators read in
    PAW grid and wavefunctions read in
 
   number of l-projection  operators is LMAX  =           4
   number of lm-projection operators is LMMAX =           8
 

 ----------------------------------------------------------------------------- 
|                                                                             |
|  ADVICE TO THIS USER RUNNING 'VASP/VAMP'   (HEAR YOUR MASTER'S VOICE ...):  |
|                                                                             |
|      You have a (more or less) 'small supercell' and for smaller cells      |
|      it is recommended  to use the reciprocal-space projection scheme!      |
|      The real space optimization is not  efficient for small cells and it   |
|      is also less accurate ...                                              |
|      Therefore set LREAL=.FALSE. in the  INCAR file                         |
|                                                                             |
 ----------------------------------------------------------------------------- 

 Optimization of the real space projectors (new method)

 maximal supplied QI-value         = 13.42
 optimisation between [QCUT,QGAM] = [ 11.67, 23.35] = [ 38.16,152.62] Ry 
 Optimized for a Real-space Cutoff    1.63 Angstroem

   l    n(q)    QCUT    max X(q) W(low)/X(q) W(high)/X(q)  e(spline) 
   0     11    11.673    10.400    0.14E-04    0.18E-05    0.24E-07
   0     11    11.673    10.768    0.21E-04    0.32E-05    0.49E-07
   1     11    11.673     4.094    0.40E-05    0.13E-04    0.93E-07
   1     11    11.673     4.009    0.11E-04    0.46E-04    0.33E-06
   2     10    11.673    29.030    0.79E-04    0.60E-04    0.70E-06
   2     10    11.673    19.941    0.80E-04    0.60E-04    0.71E-06
   3     10    11.673    88.889    0.23E-03    0.29E-03    0.30E-06
   3     10    11.673    76.102    0.23E-03    0.30E-03    0.30E-06
 Optimization of the real space projectors (new method)

 maximal supplied QI-value         = 24.76
 optimisation between [QCUT,QGAM] = [ 11.64, 23.27] = [ 37.91,151.63] Ry 
 Optimized for a Real-space Cutoff    1.14 Angstroem

   l    n(q)    QCUT    max X(q) W(low)/X(q) W(high)/X(q)  e(spline) 
   0      8    11.635    20.381    0.10E-03    0.33E-03    0.24E-06
   0      8    11.635    15.268    0.11E-03    0.35E-03    0.26E-06
   1      7    11.635     5.964    0.24E-03    0.31E-03    0.30E-06
   1      7    11.635     5.382    0.22E-03    0.25E-03    0.26E-06
  PAW_PBE Eu 23Dec2003                  :
 energy of atom  1       EATOM=-2619.8085
 kinetic energy error for atom=    0.0015 (will be added to EATOM!!)
  PAW_PBE O 08Apr2002                   :
 energy of atom  2       EATOM= -432.3788
 kinetic energy error for atom=    0.0208 (will be added to EATOM!!)
 
 
 POSCAR: Eu2 O2                                  
  positions in direct lattice
  No initial velocities read in
 exchange correlation table for  LEXCH =        8
   RHO(1)=    0.500       N(1)  =     2000
   RHO(2)=  100.500       N(2)  =     4000
 


--------------------------------------------------------------------------------------------------------


 ion  position               nearest neighbor table
   1  0.500  0.500  0.500-   4 2.54   4 2.54   3 2.54   3 2.54   3 2.54   3 2.54
   2  0.000  0.000  0.000-   3 2.54   3 2.54   4 2.54   4 2.54   4 2.54   4 2.54
   3  0.000  0.000  0.500-   2 2.54   2 2.54   1 2.54   1 2.54   1 2.54   1 2.54
   4  0.500  0.500  0.000-   1 2.54   1 2.54   2 2.54   2 2.54   2 2.54   2 2.54
 
  LATTYP: Found a simple monoclinic cell.
 ALAT       =     6.2226755890
 B/A-ratio  =     0.5773360863
 C/A-ratio  =     1.4142187925
 COS(beta)  =    -0.9428119283
  
  Lattice vectors:
  
 A1 = (  -3.5927780000,  -4.1483960000,  -2.9333340000)
 A2 = (  -0.0000080000,   2.0741620000,  -2.9333340000)
 A3 = (   7.1854240000,   4.1483960000,   2.9333340000)


Analysis of symmetry for initial positions (statically):
=====================================================================
 Subroutine PRICEL returns following result:
 
  LATTYP: Found a trigonal (rhomboedric) cell.
 ALAT       =     3.5926435723
 COS(alpha) =     0.5000184241
  
  Lattice vectors:
  
 A1 = (  -1.7963930000,  -1.0371170000,  -2.9333340000)
 A2 = (  -1.7963850000,  -3.1112790000,   0.0000000000)
 A3 = (  -3.5926460000,   0.0000000000,   0.0000000000)
 
   2 primitive cells build up your supercell.
 

 Routine SETGRP: Setting up the symmetry group for a 
 simple monoclinic supercell.


 Subroutine GETGRP returns: Found  4 space group operations
 (whereof  4 operations were pure point group operations)
 out of a pool of  4 trial point group operations.


The static configuration has the point symmetry C_2h.


Analysis of symmetry for dynamics (positions and initial velocities):
=====================================================================
 Subroutine PRICEL returns following result:
 
  LATTYP: Found a trigonal (rhomboedric) cell.
 ALAT       =     3.5926435723
 COS(alpha) =     0.5000184241
  
  Lattice vectors:
  
 A1 = (  -1.7963930000,  -1.0371170000,  -2.9333340000)
 A2 = (  -1.7963850000,  -3.1112790000,   0.0000000000)
 A3 = (  -3.5926460000,   0.0000000000,   0.0000000000)
 
   2 primitive cells build up your supercell.
 

 Routine SETGRP: Setting up the symmetry group for a 
 simple monoclinic supercell.


 Subroutine GETGRP returns: Found  4 space group operations
 (whereof  4 operations were pure point group operations)
 out of a pool of  4 trial point group operations.


The dynamic configuration has the point symmetry C_2h.


Analysis of structural, dynamic, and magnetic symmetry:
=====================================================================
 Subroutine PRICEL returns:
 Original cell was already a primitive cell.
 

 Routine SETGRP: Setting up the symmetry group for a 
 simple monoclinic supercell.


 Subroutine GETGRP returns: Found  4 space group operations
 (whereof  4 operations were pure point group operations)
 out of a pool of  4 trial point group operations.


The magnetic configuration has the point symmetry C_2h.


 Subroutine INISYM returns: Found  4 space group operations
 (whereof  4 operations are pure point group operations),
 and found     1 'primitive' translations

 
 
 KPOINTS: pymatgen v2019.10.16 with grid density =

Automatic generation of k-mesh.
Space group operators:
 irot       det(A)        alpha          n_x          n_y          n_z        tau_x        tau_y        tau_z
    1     1.000000     0.000001     1.000000     0.000000     0.000000     0.000000     0.000000     0.000000
    2    -1.000000     0.000001     1.000000     0.000000     0.000000     0.000000     0.000000     0.000000
    3     1.000000   180.000000     0.000000    -0.577347     0.816499     0.000000     0.000000     0.000000
    4    -1.000000   180.000000     0.000000    -0.577347     0.816499     0.000000     0.000000     0.000000
 
 Subroutine IBZKPT returns following result:
 ===========================================
 
 Found    105 irreducible k-points:
 
 Following reciprocal coordinates:
            Coordinates               Weight
  0.000000  0.000000  0.000000      1.000000
  0.125000  0.000000  0.000000      2.000000
  0.250000  0.000000  0.000000      2.000000
  0.375000  0.000000  0.000000      2.000000
  0.500000  0.000000  0.000000      1.000000
  0.000000  0.125000  0.000000      2.000000
  0.125000  0.125000  0.000000      4.000000
  0.250000  0.125000  0.000000      4.000000
  0.375000  0.125000  0.000000      4.000000
  0.500000  0.125000  0.000000      2.000000
  0.000000  0.250000  0.000000      2.000000
  0.125000  0.250000  0.000000      4.000000
  0.250000  0.250000  0.000000      4.000000
  0.375000  0.250000 -0.000000      4.000000
  0.500000  0.250000  0.000000      2.000000
  0.000000  0.375000  0.000000      2.000000
  0.125000  0.375000  0.000000      4.000000
  0.250000  0.375000  0.000000      4.000000
  0.375000  0.375000  0.000000      4.000000
  0.500000  0.375000  0.000000      2.000000
  0.000000  0.500000  0.000000      1.000000
  0.125000  0.500000  0.000000      2.000000
  0.250000  0.500000  0.000000      2.000000
  0.375000  0.500000  0.000000      2.000000
  0.500000  0.500000  0.000000      1.000000
  0.000000  0.000000  0.200000      2.000000
  0.125000  0.000000  0.200000      4.000000
  0.250000  0.000000  0.200000      4.000000
  0.375000  0.000000  0.200000      4.000000
  0.500000  0.000000  0.200000      2.000000
  0.000000  0.125000  0.200000      2.000000
  0.125000  0.125000  0.200000      4.000000
  0.250000  0.125000  0.200000      4.000000
  0.375000  0.125000  0.200000      4.000000
  0.500000  0.125000  0.200000      2.000000
  0.000000  0.250000  0.200000      2.000000
  0.125000  0.250000  0.200000      4.000000
  0.250000  0.250000  0.200000      4.000000
  0.375000  0.250000  0.200000      4.000000
  0.500000  0.250000  0.200000      2.000000
  0.000000  0.375000  0.200000      2.000000
  0.125000  0.375000  0.200000      4.000000
  0.250000  0.375000  0.200000      4.000000
  0.375000  0.375000  0.200000      4.000000
  0.500000  0.375000  0.200000      2.000000
  0.000000  0.500000  0.200000      2.000000
  0.125000  0.500000  0.200000      4.000000
  0.250000  0.500000  0.200000      4.000000
  0.375000  0.500000  0.200000      4.000000
  0.500000  0.500000  0.200000      2.000000
  0.000000 -0.375000  0.200000      2.000000
  0.125000 -0.375000  0.200000      4.000000
  0.250000 -0.375000  0.200000      4.000000
  0.375000 -0.375000  0.200000      4.000000
  0.500000 -0.375000  0.200000      2.000000
  0.000000 -0.250000  0.200000      2.000000
  0.125000 -0.250000  0.200000      4.000000
  0.250000 -0.250000  0.200000      4.000000
  0.375000 -0.250000  0.200000      4.000000
  0.500000 -0.250000  0.200000      2.000000
  0.000000 -0.125000  0.200000      2.000000
  0.125000 -0.125000  0.200000      4.000000
  0.250000 -0.125000  0.200000      4.000000
  0.375000 -0.125000  0.200000      4.000000
  0.500000 -0.125000  0.200000      2.000000
  0.000000  0.000000  0.400000      2.000000
  0.125000  0.000000  0.400000      4.000000
  0.250000  0.000000  0.400000      4.000000
  0.375000  0.000000  0.400000      4.000000
  0.500000  0.000000  0.400000      2.000000
  0.000000  0.125000  0.400000      2.000000
  0.125000  0.125000  0.400000      4.000000
  0.250000  0.125000  0.400000      4.000000
  0.375000  0.125000  0.400000      4.000000
  0.500000  0.125000  0.400000      2.000000
  0.000000  0.250000  0.400000      2.000000
  0.125000  0.250000  0.400000      4.000000
  0.250000  0.250000  0.400000      4.000000
  0.375000  0.250000  0.400000      4.000000
  0.500000  0.250000  0.400000      2.000000
 -0.000000  0.375000  0.400000      2.000000
  0.125000  0.375000  0.400000      4.000000
  0.250000  0.375000  0.400000      4.000000
  0.375000  0.375000  0.400000      4.000000
  0.500000  0.375000  0.400000      2.000000
  0.000000  0.500000  0.400000      2.000000
  0.125000  0.500000  0.400000      4.000000
  0.250000  0.500000  0.400000      4.000000
  0.375000  0.500000  0.400000      4.000000
  0.500000  0.500000  0.400000      2.000000
 -0.000000 -0.375000  0.400000      2.000000
  0.125000 -0.375000  0.400000      4.000000
  0.250000 -0.375000  0.400000      4.000000
  0.375000 -0.375000  0.400000      4.000000
  0.500000 -0.375000  0.400000      2.000000
  0.000000 -0.250000  0.400000      2.000000
  0.125000 -0.250000  0.400000      4.000000
  0.250000 -0.250000  0.400000      4.000000
  0.375000 -0.250000  0.400000      4.000000
  0.500000 -0.250000  0.400000      2.000000
 -0.000000 -0.125000  0.400000      2.000000
  0.125000 -0.125000  0.400000      4.000000
  0.250000 -0.125000  0.400000      4.000000
  0.375000 -0.125000  0.400000      4.000000
  0.500000 -0.125000  0.400000      2.000000
 
 Following cartesian coordinates:
            Coordinates               Weight
  0.000000  0.000000  0.000000      1.000000
  0.000000 -0.020088  0.028409      2.000000
  0.000000 -0.040176  0.056818      2.000000
  0.000000 -0.060265  0.085228      2.000000
  0.000000 -0.080353  0.113637      1.000000
  0.034793 -0.000001 -0.000001      2.000000
  0.034793 -0.020089  0.028409      4.000000
  0.034793 -0.040177  0.056818      4.000000
  0.034793 -0.060265  0.085227      4.000000
  0.034793 -0.080354  0.113636      2.000000
  0.069587 -0.000001 -0.000001      2.000000
  0.069587 -0.020090  0.028408      4.000000
  0.069587 -0.040178  0.056817      4.000000
  0.069587 -0.060266  0.085227      4.000000
  0.069587 -0.080354  0.113636      2.000000
  0.104380 -0.000002 -0.000002      2.000000
  0.104380 -0.020090  0.028407      4.000000
  0.104380 -0.040178  0.056817      4.000000
  0.104380 -0.060267  0.085226      4.000000
  0.104380 -0.080355  0.113635      2.000000
  0.139173 -0.000003 -0.000002      1.000000
  0.139173 -0.020091  0.028407      2.000000
  0.139173 -0.040179  0.056816      2.000000
  0.139173 -0.060267  0.085225      2.000000
  0.139173 -0.080356  0.113635      1.000000
  0.000000  0.032141  0.022727      2.000000
  0.000000  0.012053  0.051136      4.000000
  0.000000 -0.008035  0.079546      4.000000
  0.000000 -0.028123  0.107955      4.000000
  0.000000 -0.048212  0.136364      2.000000
  0.034793  0.032140  0.022726      2.000000
  0.034793  0.012052  0.051136      4.000000
  0.034793 -0.008036  0.079545      4.000000
  0.034793 -0.028124  0.107954      4.000000
  0.034793 -0.048212  0.136363      2.000000
  0.069587  0.032140  0.022726      2.000000
  0.069587  0.012052  0.051135      4.000000
  0.069587 -0.008037  0.079544      4.000000
  0.069587 -0.028125  0.107954      4.000000
  0.069587 -0.048213  0.136363      2.000000
  0.104380  0.032139  0.022725      2.000000
  0.104380  0.012051  0.051134      4.000000
  0.104380 -0.008037  0.079544      4.000000
  0.104380 -0.028126  0.107953      4.000000
  0.104380 -0.048214  0.136362      2.000000
  0.139173  0.032138  0.022725      2.000000
  0.139173  0.012050  0.051134      4.000000
  0.139173 -0.008038  0.079543      4.000000
  0.139173 -0.028126  0.107952      4.000000
  0.139173 -0.048214  0.136362      2.000000
 -0.104380  0.032143  0.022729      2.000000
 -0.104380  0.012055  0.051138      4.000000
 -0.104380 -0.008033  0.079547      4.000000
 -0.104380 -0.028121  0.107957      4.000000
 -0.104380 -0.048210  0.136366      2.000000
 -0.069587  0.032143  0.022728      2.000000
 -0.069587  0.012054  0.051137      4.000000
 -0.069587 -0.008034  0.079547      4.000000
 -0.069587 -0.028122  0.107956      4.000000
 -0.069587 -0.048210  0.136365      2.000000
 -0.034793  0.032142  0.022728      2.000000
 -0.034793  0.012054  0.051137      4.000000
 -0.034793 -0.008035  0.079546      4.000000
 -0.034793 -0.028123  0.107955      4.000000
 -0.034793 -0.048211  0.136365      2.000000
  0.000000  0.064282  0.045454      2.000000
  0.000000  0.044194  0.073863      4.000000
  0.000000  0.024106  0.102273      4.000000
  0.000000  0.004018  0.130682      4.000000
  0.000000 -0.016071  0.159091      2.000000
  0.034793  0.064282  0.045453      2.000000
  0.034793  0.044193  0.073863      4.000000
  0.034793  0.024105  0.102272      4.000000
  0.034793  0.004017  0.130681      4.000000
  0.034793 -0.016071  0.159090      2.000000
  0.069587  0.064281  0.045453      2.000000
  0.069587  0.044193  0.073862      4.000000
  0.069587  0.024104  0.102271      4.000000
  0.069587  0.004016  0.130681      4.000000
  0.069587 -0.016072  0.159090      2.000000
  0.104380  0.064280  0.045452      2.000000
  0.104380  0.044192  0.073862      4.000000
  0.104380  0.024104  0.102271      4.000000
  0.104380  0.004016  0.130680      4.000000
  0.104380 -0.016073  0.159089      2.000000
  0.139173  0.064279  0.045452      2.000000
  0.139173  0.044191  0.073861      4.000000
  0.139173  0.024103  0.102270      4.000000
  0.139173  0.004015  0.130679      4.000000
  0.139173 -0.016073  0.159089      2.000000
 -0.104380  0.064284  0.045456      2.000000
 -0.104380  0.044196  0.073865      4.000000
 -0.104380  0.024108  0.102274      4.000000
 -0.104380  0.004020  0.130684      4.000000
 -0.104380 -0.016068  0.159093      2.000000
 -0.069587  0.064284  0.045455      2.000000
 -0.069587  0.044195  0.073864      4.000000
 -0.069587  0.024107  0.102274      4.000000
 -0.069587  0.004019  0.130683      4.000000
 -0.069587 -0.016069  0.159092      2.000000
 -0.034793  0.064283  0.045455      2.000000
 -0.034793  0.044195  0.073864      4.000000
 -0.034793  0.024107  0.102273      4.000000
 -0.034793  0.004018  0.130682      4.000000
 -0.034793 -0.016070  0.159092      2.000000
 
 TETIRR: Found    960 inequivalent tetrahedra from     1920


--------------------------------------------------------------------------------------------------------




 Dimension of arrays:
   k-points           NKPTS =    105   k-points in BZ     NKDIM =    105   number of bands    NBANDS=     32
   number of dos      NEDOS =    301   number of ions     NIONS =      4
   non local maximal  LDIM  =      8   non local SUM 2l+1 LMDIM =     32
   total plane-waves  NPLWV =  31360
   max r-space proj   IRMAX =   8681   max aug-charges    IRDMAX=  27536
   dimension x,y,z NGX =    28 NGY =   28 NGZ =   40
   dimension x,y,z NGXF=    56 NGYF=   56 NGZF=   80
   support grid    NGXF=    56 NGYF=   56 NGZF=   80
   ions per type =               2   2
   NGX,Y,Z   is equivalent  to a cutoff of  12.96, 12.96, 13.09 a.u.
   NGXF,Y,Z  is equivalent  to a cutoff of  25.91, 25.91, 26.18 a.u.

 SYSTEM =  unknown system                          
 POSCAR =  Eu2 O2                                  

 Startparameter for this run:
   NWRITE =      2    write-flag & timer
   PREC   = accura    normal or accurate (medium, high low for compatibility)
   ISTART =      0    job   : 0-new  1-cont  2-samecut
   ICHARG =      0    charge: 1-file 2-atom 10-const
   ISPIN  =      2    spin polarized calculation?
   LNONCOLLINEAR =      F non collinear calculations
   LSORBIT =      F    spin-orbit coupling
   INIWAV =      1    electr: 0-lowe 1-rand  2-diag
   LASPH  =      F    aspherical Exc in radial PAW
   METAGGA=      F    non-selfconsistent MetaGGA calc.

 Electronic Relaxation 1
   ENCUT  =  520.0 eV  38.22 Ry    6.18 a.u.   6.68  6.68  9.45*2*pi/ulx,y,z
   ENINI  =  520.0     initial cutoff
   ENAUG  =  605.4 eV  augmentation charge cutoff
   NELM   =    100;   NELMIN=  2; NELMDL= -5     # of ELM steps 
   EDIFF  = 0.2E-03   stopping-criterion for ELM
   LREAL  =      T    real-space projection
   NLSPLINE    = F    spline interpolate recip. space projectors
   LCOMPAT=      F    compatible to vasp.4.4
   GGA_COMPAT  = T    GGA compatible to vasp.4.4-vasp.4.6
   LMAXPAW     = -100 max onsite density
   LMAXMIX     =    2 max onsite mixed and CHGCAR
   VOSKOWN=      0    Vosko Wilk Nusair interpolation
   ROPT   =   -0.00025  -0.00025
 Ionic relaxation
   EDIFFG = 0.2E-02   stopping-criterion for IOM
   NSW    =      0    number of steps for IOM
   NBLOCK =      1;   KBLOCK =      1    inner block; outer block 
   IBRION =     -1    ionic relax: 0-MD 1-quasi-New 2-CG
   NFREE  =      0    steps in history (QN), initial steepest desc. (CG)
   ISIF   =      3    stress and relaxation
   IWAVPR =     10    prediction:  0-non 1-charg 2-wave 3-comb
   ISYM   =      2    0-nonsym 1-usesym 2-fastsym
   LCORR  =      T    Harris-Foulkes like correction to forces

   POTIM  = 0.5000    time-step for ionic-motion
   TEIN   =    0.0    initial temperature
   TEBEG  =    0.0;   TEEND  =   0.0 temperature during run
   SMASS  =  -3.00    Nose mass-parameter (am)
   estimated Nose-frequenzy (Omega)   =  0.10E-29 period in steps =****** mass=  -0.295E-27a.u.
   SCALEE = 1.0000    scale energy and forces
   NPACO  =    256;   APACO  = 16.0  distance and # of slots for P.C.
   PSTRESS=    0.0 pullay stress

  Mass of Ions in am
   POMASS = 151.97 16.00
  Ionic Valenz
   ZVAL   =  17.00  6.00
  Atomic Wigner-Seitz radii
   RWIGS  =  -1.00 -1.00
  virtual crystal weights 
   VCA    =   1.00  1.00
   NELECT =      46.0000    total number of electrons
   NUPDOWN=      -1.0000    fix difference up-down

 DOS related values:
   EMIN   =  10.00;   EMAX   =-10.00  energy-range for DOS
   EFERMI =   0.00
   ISMEAR =    -5;   SIGMA  =   0.05  broadening in eV -4-tet -1-fermi 0-gaus

 Electronic relaxation 2 (details)
   IALGO  =     38    algorithm
   LDIAG  =      T    sub-space diagonalisation (order eigenvalues)
   LSUBROT=      F    optimize rotation matrix (better conditioning)
   TURBO    =      0    0=normal 1=particle mesh
   IRESTART =      0    0=no restart 2=restart with 2 vectors
   NREBOOT  =      0    no. of reboots
   NMIN     =      0    reboot dimension
   EREF     =   0.00    reference energy to select bands
   IMIX   =      4    mixing-type and parameters
     AMIX     =   0.40;   BMIX     =  1.00
     AMIX_MAG =   1.60;   BMIX_MAG =  1.00
     AMIN     =   0.10
     WC   =   100.;   INIMIX=   1;  MIXPRE=   1;  MAXMIX= -45

 Intra band minimization:
   WEIMIN = 0.0000     energy-eigenvalue tresh-hold
   EBREAK =  0.16E-05  absolut break condition
   DEPER  =   0.30     relativ break condition  

   TIME   =   0.40     timestep for ELM

  volume/ion in A,a.u.               =      16.39       110.63
  Fermi-wavevector in a.u.,A,eV,Ry     =   1.454607  2.748810 28.788334  2.115883
  Thomas-Fermi vector in A             =   2.571738
 
 Write flags
   LWAVE        =      F    write WAVECAR
   LDOWNSAMPLE  =      F    k-point downsampling of WAVECAR
   LCHARG       =      T    write CHGCAR
   LVTOT        =      F    write LOCPOT, total local potential
   LVHAR        =      T    write LOCPOT, Hartree potential only
   LELF         =      F    write electronic localiz. function (ELF)
   LORBIT       =     11    0 simple, 1 ext, 2 COOP (PROOUT), +10 PAW based schemes


 Dipole corrections
   LMONO  =      F    monopole corrections only (constant potential shift)
   LDIPOL =      F    correct potential (dipole corrections)
   IDIPOL =      0    1-x, 2-y, 3-z, 4-all directions 
   EPSILON=  1.0000000 bulk dielectric constant

 Exchange correlation treatment:
   GGA     =    --    GGA type
   LEXCH   =     8    internal setting for exchange type
   VOSKOWN=      0    Vosko Wilk Nusair interpolation
   LHFCALC =     F    Hartree Fock is set to
   LHFONE  =     F    Hartree Fock one center treatment
   AEXX    =    0.0000 exact exchange contribution

 Linear response parameters
   LEPSILON=     F    determine dielectric tensor
   LRPA    =     F    only Hartree local field effects (RPA)
   LNABLA  =     F    use nabla operator in PAW spheres
   LVEL    =     F    velocity operator in full k-point grid
   LINTERFAST=   F  fast interpolation
   KINTER  =     0    interpolate to denser k-point grid
   CSHIFT  =0.1000    complex shift for real part using Kramers Kronig
   OMEGAMAX=  -1.0    maximum frequency
   DEG_THRESHOLD= 0.2000000E-02 threshold for treating states as degnerate
   RTIME   =   -0.100 relaxation time in fs
  (WPLASMAI=    0.000 imaginary part of plasma frequency in eV, 0.658/RTIME)
   DFIELD  = 0.0000000 0.0000000 0.0000000 field for delta impulse in time
 
 Orbital magnetization related:
   ORBITALMAG=     F  switch on orbital magnetization
   LCHIMAG   =     F  perturbation theory with respect to B field
   DQ        =  0.001000  dq finite difference perturbation B field
   LLRAUG    =     F  two centre corrections for induced B field



--------------------------------------------------------------------------------------------------------


 Static calculation
 charge density and potential will be updated during run
 spin polarized calculation
 Variant of blocked Davidson
 Davidson routine will perform the subspace rotation
 perform sub-space diagonalisation
    after iterative eigenvector-optimisation
 modified Broyden-mixing scheme, WC =      100.0
 initial mixing is a Kerker type mixing with AMIX =  0.4000 and BMIX =      1.0000
 Hartree-type preconditioning will be used
 using additional bands            9
 real space projection scheme for non local part
 use partial core corrections
 calculate Harris-corrections to forces 
   (improved forces if not selfconsistent)
 use gradient corrections 
 use of overlap-Matrix (Vanderbilt PP)
 Fermi weights with tetrahedron method with Bloechl corrections


--------------------------------------------------------------------------------------------------------


  energy-cutoff  :      520.00
  volume of cell :       65.58
      direct lattice vectors                 reciprocal lattice vectors
     0.000008000 -2.074162000  2.933334000     0.000000000 -0.160705613  0.227273990
     3.592646000  0.000000000  0.000000000     0.278346378 -0.000005547 -0.000004681
     0.000132000  4.148396000  2.933334000     0.000000000  0.160705613  0.113635023

  length of vectors
     3.592575171  3.592646000  5.080712327     0.278351865  0.278346378  0.196822795


 
 k-points in units of 2pi/SCALE and weight: pymatgen v2019.10.16 with grid density =
   0.00000000  0.00000000  0.00000000       0.003
   0.00000000 -0.02008820  0.02840925       0.006
   0.00000000 -0.04017640  0.05681850       0.006
   0.00000000 -0.06026461  0.08522775       0.006
   0.00000000 -0.08035281  0.11363700       0.003
   0.03479330 -0.00000069 -0.00000059       0.006
   0.03479330 -0.02008890  0.02840866       0.013
   0.03479330 -0.04017710  0.05681791       0.013
   0.03479330 -0.06026530  0.08522716       0.013
   0.03479330 -0.08035350  0.11363641       0.006
   0.06958659 -0.00000139 -0.00000117       0.006
   0.06958659 -0.02008959  0.02840808       0.013
   0.06958659 -0.04017779  0.05681733       0.013
   0.06958659 -0.06026599  0.08522658       0.013
   0.06958659 -0.08035419  0.11363582       0.006
   0.10437989 -0.00000208 -0.00000176       0.006
   0.10437989 -0.02009028  0.02840749       0.013
   0.10437989 -0.04017848  0.05681674       0.013
   0.10437989 -0.06026669  0.08522599       0.013
   0.10437989 -0.08035489  0.11363524       0.006
   0.13917319 -0.00000277 -0.00000234       0.003
   0.13917319 -0.02009098  0.02840691       0.006
   0.13917319 -0.04017918  0.05681616       0.006
   0.13917319 -0.06026738  0.08522541       0.006
   0.13917319 -0.08035558  0.11363465       0.003
   0.00000000  0.03214112  0.02272700       0.006
   0.00000000  0.01205292  0.05113625       0.013
   0.00000000 -0.00803528  0.07954550       0.013
   0.00000000 -0.02812348  0.10795475       0.013
   0.00000000 -0.04821168  0.13636400       0.006
   0.03479330  0.03214043  0.02272642       0.006
   0.03479330  0.01205223  0.05113567       0.013
   0.03479330 -0.00803597  0.07954492       0.013
   0.03479330 -0.02812418  0.10795417       0.013
   0.03479330 -0.04821238  0.13636341       0.006
   0.06958659  0.03213974  0.02272583       0.006
   0.06958659  0.01205153  0.05113508       0.013
   0.06958659 -0.00803667  0.07954433       0.013
   0.06958659 -0.02812487  0.10795358       0.013
   0.06958659 -0.04821307  0.13636283       0.006
   0.10437989  0.03213904  0.02272525       0.006
   0.10437989  0.01205084  0.05113450       0.013
   0.10437989 -0.00803736  0.07954375       0.013
   0.10437989 -0.02812556  0.10795300       0.013
   0.10437989 -0.04821376  0.13636224       0.006
   0.13917319  0.03213835  0.02272466       0.006
   0.13917319  0.01205015  0.05113391       0.013
   0.13917319 -0.00803805  0.07954316       0.013
   0.13917319 -0.02812626  0.10795241       0.013
   0.13917319 -0.04821446  0.13636166       0.006
  -0.10437989  0.03214320  0.02272876       0.006
  -0.10437989  0.01205500  0.05113801       0.013
  -0.10437989 -0.00803320  0.07954726       0.013
  -0.10437989 -0.02812140  0.10795651       0.013
  -0.10437989 -0.04820960  0.13636576       0.006
  -0.06958659  0.03214251  0.02272817       0.006
  -0.06958659  0.01205431  0.05113742       0.013
  -0.06958659 -0.00803389  0.07954667       0.013
  -0.06958659 -0.02812210  0.10795592       0.013
  -0.06958659 -0.04821030  0.13636517       0.006
  -0.03479330  0.03214182  0.02272759       0.006
  -0.03479330  0.01205361  0.05113684       0.013
  -0.03479330 -0.00803459  0.07954609       0.013
  -0.03479330 -0.02812279  0.10795534       0.013
  -0.03479330 -0.04821099  0.13636458       0.006
   0.00000000  0.06428225  0.04545401       0.006
   0.00000000  0.04419404  0.07386326       0.013
   0.00000000  0.02410584  0.10227251       0.013
   0.00000000  0.00401764  0.13068176       0.013
   0.00000000 -0.01607056  0.15909100       0.006
   0.03479330  0.06428155  0.04545342       0.006
   0.03479330  0.04419335  0.07386267       0.013
   0.03479330  0.02410515  0.10227192       0.013
   0.03479330  0.00401695  0.13068117       0.013
   0.03479330 -0.01607125  0.15909042       0.006
   0.06958659  0.06428086  0.04545284       0.006
   0.06958659  0.04419266  0.07386209       0.013
   0.06958659  0.02410446  0.10227134       0.013
   0.06958659  0.00401625  0.13068059       0.013
   0.06958659 -0.01607195  0.15908983       0.006
   0.10437989  0.06428017  0.04545225       0.006
   0.10437989  0.04419196  0.07386150       0.013
   0.10437989  0.02410376  0.10227075       0.013
   0.10437989  0.00401556  0.13068000       0.013
   0.10437989 -0.01607264  0.15908925       0.006
   0.13917319  0.06427947  0.04545167       0.006
   0.13917319  0.04419127  0.07386092       0.013
   0.13917319  0.02410307  0.10227017       0.013
   0.13917319  0.00401487  0.13067941       0.013
   0.13917319 -0.01607333  0.15908866       0.006
  -0.10437989  0.06428433  0.04545576       0.006
  -0.10437989  0.04419612  0.07386501       0.013
  -0.10437989  0.02410792  0.10227426       0.013
  -0.10437989  0.00401972  0.13068351       0.013
  -0.10437989 -0.01606848  0.15909276       0.006
  -0.06958659  0.06428363  0.04545518       0.006
  -0.06958659  0.04419543  0.07386443       0.013
  -0.06958659  0.02410723  0.10227368       0.013
  -0.06958659  0.00401903  0.13068293       0.013
  -0.06958659 -0.01606917  0.15909217       0.006
  -0.03479330  0.06428294  0.04545459       0.006
  -0.03479330  0.04419474  0.07386384       0.013
  -0.03479330  0.02410654  0.10227309       0.013
  -0.03479330  0.00401833  0.13068234       0.013
  -0.03479330 -0.01606987  0.15909159       0.006
 
 k-points in reciprocal lattice and weights: pymatgen v2019.10.16 with grid density =
   0.00000000  0.00000000  0.00000000       0.003
   0.12500000  0.00000000  0.00000000       0.006
   0.25000000  0.00000000  0.00000000       0.006
   0.37500000  0.00000000  0.00000000       0.006
   0.50000000  0.00000000  0.00000000       0.003
   0.00000000  0.12500000  0.00000000       0.006
   0.12500000  0.12500000  0.00000000       0.013
   0.25000000  0.12500000  0.00000000       0.013
   0.37500000  0.12500000  0.00000000       0.013
   0.50000000  0.12500000  0.00000000       0.006
   0.00000000  0.25000000  0.00000000       0.006
   0.12500000  0.25000000  0.00000000       0.013
   0.25000000  0.25000000  0.00000000       0.013
   0.37500000  0.25000000 -0.00000000       0.013
   0.50000000  0.25000000  0.00000000       0.006
   0.00000000  0.37500000  0.00000000       0.006
   0.12500000  0.37500000  0.00000000       0.013
   0.25000000  0.37500000  0.00000000       0.013
   0.37500000  0.37500000  0.00000000       0.013
   0.50000000  0.37500000  0.00000000       0.006
   0.00000000  0.50000000  0.00000000       0.003
   0.12500000  0.50000000  0.00000000       0.006
   0.25000000  0.50000000  0.00000000       0.006
   0.37500000  0.50000000  0.00000000       0.006
   0.50000000  0.50000000  0.00000000       0.003
   0.00000000  0.00000000  0.20000000       0.006
   0.12500000  0.00000000  0.20000000       0.013
   0.25000000  0.00000000  0.20000000       0.013
   0.37500000  0.00000000  0.20000000       0.013
   0.50000000  0.00000000  0.20000000       0.006
   0.00000000  0.12500000  0.20000000       0.006
   0.12500000  0.12500000  0.20000000       0.013
   0.25000000  0.12500000  0.20000000       0.013
   0.37500000  0.12500000  0.20000000       0.013
   0.50000000  0.12500000  0.20000000       0.006
   0.00000000  0.25000000  0.20000000       0.006
   0.12500000  0.25000000  0.20000000       0.013
   0.25000000  0.25000000  0.20000000       0.013
   0.37500000  0.25000000  0.20000000       0.013
   0.50000000  0.25000000  0.20000000       0.006
   0.00000000  0.37500000  0.20000000       0.006
   0.12500000  0.37500000  0.20000000       0.013
   0.25000000  0.37500000  0.20000000       0.013
   0.37500000  0.37500000  0.20000000       0.013
   0.50000000  0.37500000  0.20000000       0.006
   0.00000000  0.50000000  0.20000000       0.006
   0.12500000  0.50000000  0.20000000       0.013
   0.25000000  0.50000000  0.20000000       0.013
   0.37500000  0.50000000  0.20000000       0.013
   0.50000000  0.50000000  0.20000000       0.006
   0.00000000 -0.37500000  0.20000000       0.006
   0.12500000 -0.37500000  0.20000000       0.013
   0.25000000 -0.37500000  0.20000000       0.013
   0.37500000 -0.37500000  0.20000000       0.013
   0.50000000 -0.37500000  0.20000000       0.006
   0.00000000 -0.25000000  0.20000000       0.006
   0.12500000 -0.25000000  0.20000000       0.013
   0.25000000 -0.25000000  0.20000000       0.013
   0.37500000 -0.25000000  0.20000000       0.013
   0.50000000 -0.25000000  0.20000000       0.006
   0.00000000 -0.12500000  0.20000000       0.006
   0.12500000 -0.12500000  0.20000000       0.013
   0.25000000 -0.12500000  0.20000000       0.013
   0.37500000 -0.12500000  0.20000000       0.013
   0.50000000 -0.12500000  0.20000000       0.006
   0.00000000  0.00000000  0.40000000       0.006
   0.12500000  0.00000000  0.40000000       0.013
   0.25000000  0.00000000  0.40000000       0.013
   0.37500000  0.00000000  0.40000000       0.013
   0.50000000  0.00000000  0.40000000       0.006
   0.00000000  0.12500000  0.40000000       0.006
   0.12500000  0.12500000  0.40000000       0.013
   0.25000000  0.12500000  0.40000000       0.013
   0.37500000  0.12500000  0.40000000       0.013
   0.50000000  0.12500000  0.40000000       0.006
   0.00000000  0.25000000  0.40000000       0.006
   0.12500000  0.25000000  0.40000000       0.013
   0.25000000  0.25000000  0.40000000       0.013
   0.37500000  0.25000000  0.40000000       0.013
   0.50000000  0.25000000  0.40000000       0.006
  -0.00000000  0.37500000  0.40000000       0.006
   0.12500000  0.37500000  0.40000000       0.013
   0.25000000  0.37500000  0.40000000       0.013
   0.37500000  0.37500000  0.40000000       0.013
   0.50000000  0.37500000  0.40000000       0.006
   0.00000000  0.50000000  0.40000000       0.006
   0.12500000  0.50000000  0.40000000       0.013
   0.25000000  0.50000000  0.40000000       0.013
   0.37500000  0.50000000  0.40000000       0.013
   0.50000000  0.50000000  0.40000000       0.006
  -0.00000000 -0.37500000  0.40000000       0.006
   0.12500000 -0.37500000  0.40000000       0.013
   0.25000000 -0.37500000  0.40000000       0.013
   0.37500000 -0.37500000  0.40000000       0.013
   0.50000000 -0.37500000  0.40000000       0.006
   0.00000000 -0.25000000  0.40000000       0.006
   0.12500000 -0.25000000  0.40000000       0.013
   0.25000000 -0.25000000  0.40000000       0.013
   0.37500000 -0.25000000  0.40000000       0.013
   0.50000000 -0.25000000  0.40000000       0.006
  -0.00000000 -0.12500000  0.40000000       0.006
   0.12500000 -0.12500000  0.40000000       0.013
   0.25000000 -0.12500000  0.40000000       0.013
   0.37500000 -0.12500000  0.40000000       0.013
   0.50000000 -0.12500000  0.40000000       0.006
 
 position of ions in fractional coordinates (direct lattice) 
   0.50000000  0.50000000  0.50000000
   0.00000000  0.00000000  0.00000000
   0.00000000  0.00000000  0.50000000
   0.50000000  0.50000000  0.00000000
 
 position of ions in cartesian coordinates  (Angst):
   1.79639300  1.03711700  2.93333400
   0.00000000  0.00000000  0.00000000
   0.00006600  2.07419800  1.46666700
   1.79632700 -1.03708100  1.46666700
 


--------------------------------------------------------------------------------------------------------


 k-point  1 :   0.0000 0.0000 0.0000  plane waves:    1787
 k-point  2 :   0.1250 0.0000 0.0000  plane waves:    1787
 k-point  3 :   0.2500 0.0000 0.0000  plane waves:    1793
 k-point  4 :   0.3750 0.0000 0.0000  plane waves:    1756
 k-point  5 :   0.5000 0.0000 0.0000  plane waves:    1766
 k-point  6 :   0.0000 0.1250 0.0000  plane waves:    1787
 k-point  7 :   0.1250 0.1250 0.0000  plane waves:    1773
 k-point  8 :   0.2500 0.1250 0.0000  plane waves:    1774
 k-point  9 :   0.3750 0.1250 0.0000  plane waves:    1765
 k-point 10 :   0.5000 0.1250 0.0000  plane waves:    1768
 k-point 11 :   0.0000 0.2500 0.0000  plane waves:    1793
 k-point 12 :   0.1250 0.2500 0.0000  plane waves:    1774
 k-point 13 :   0.2500 0.2500 0.0000  plane waves:    1757
 k-point 14 :   0.3750 0.2500-0.0000  plane waves:    1766
 k-point 15 :   0.5000 0.2500 0.0000  plane waves:    1760
 k-point 16 :   0.0000 0.3750 0.0000  plane waves:    1756
 k-point 17 :   0.1250 0.3750 0.0000  plane waves:    1765
 k-point 18 :   0.2500 0.3750 0.0000  plane waves:    1766
 k-point 19 :   0.3750 0.3750 0.0000  plane waves:    1766
 k-point 20 :   0.5000 0.3750 0.0000  plane waves:    1760
 k-point 21 :   0.0000 0.5000 0.0000  plane waves:    1766
 k-point 22 :   0.1250 0.5000 0.0000  plane waves:    1768
 k-point 23 :   0.2500 0.5000 0.0000  plane waves:    1760
 k-point 24 :   0.3750 0.5000 0.0000  plane waves:    1760
 k-point 25 :   0.5000 0.5000 0.0000  plane waves:    1788
 k-point 26 :   0.0000 0.0000 0.2000  plane waves:    1775
 k-point 27 :   0.1250 0.0000 0.2000  plane waves:    1788
 k-point 28 :   0.2500 0.0000 0.2000  plane waves:    1772
 k-point 29 :   0.3750 0.0000 0.2000  plane waves:    1770
 k-point 30 :   0.5000 0.0000 0.2000  plane waves:    1760
 k-point 31 :   0.0000 0.1250 0.2000  plane waves:    1788
 k-point 32 :   0.1250 0.1250 0.2000  plane waves:    1783
 k-point 33 :   0.2500 0.1250 0.2000  plane waves:    1766
 k-point 34 :   0.3750 0.1250 0.2000  plane waves:    1759
 k-point 35 :   0.5000 0.1250 0.2000  plane waves:    1764
 k-point 36 :   0.0000 0.2500 0.2000  plane waves:    1772
 k-point 37 :   0.1250 0.2500 0.2000  plane waves:    1766
 k-point 38 :   0.2500 0.2500 0.2000  plane waves:    1768
 k-point 39 :   0.3750 0.2500 0.2000  plane waves:    1762
 k-point 40 :   0.5000 0.2500 0.2000  plane waves:    1762
 k-point 41 :   0.0000 0.3750 0.2000  plane waves:    1770
 k-point 42 :   0.1250 0.3750 0.2000  plane waves:    1759
 k-point 43 :   0.2500 0.3750 0.2000  plane waves:    1762
 k-point 44 :   0.3750 0.3750 0.2000  plane waves:    1764
 k-point 45 :   0.5000 0.3750 0.2000  plane waves:    1768
 k-point 46 :   0.0000 0.5000 0.2000  plane waves:    1760
 k-point 47 :   0.1250 0.5000 0.2000  plane waves:    1764
 k-point 48 :   0.2500 0.5000 0.2000  plane waves:    1762
 k-point 49 :   0.3750 0.5000 0.2000  plane waves:    1768
 k-point 50 :   0.5000 0.5000 0.2000  plane waves:    1768
 k-point 51 :   0.0000-0.3750 0.2000  plane waves:    1770
 k-point 52 :   0.1250-0.3750 0.2000  plane waves:    1759
 k-point 53 :   0.2500-0.3750 0.2000  plane waves:    1762
 k-point 54 :   0.3750-0.3750 0.2000  plane waves:    1764
 k-point 55 :   0.5000-0.3750 0.2000  plane waves:    1768
 k-point 56 :   0.0000-0.2500 0.2000  plane waves:    1772
 k-point 57 :   0.1250-0.2500 0.2000  plane waves:    1766
 k-point 58 :   0.2500-0.2500 0.2000  plane waves:    1768
 k-point 59 :   0.3750-0.2500 0.2000  plane waves:    1762
 k-point 60 :   0.5000-0.2500 0.2000  plane waves:    1762
 k-point 61 :   0.0000-0.1250 0.2000  plane waves:    1788
 k-point 62 :   0.1250-0.1250 0.2000  plane waves:    1783
 k-point 63 :   0.2500-0.1250 0.2000  plane waves:    1766
 k-point 64 :   0.3750-0.1250 0.2000  plane waves:    1759
 k-point 65 :   0.5000-0.1250 0.2000  plane waves:    1764
 k-point 66 :   0.0000 0.0000 0.4000  plane waves:    1759
 k-point 67 :   0.1250 0.0000 0.4000  plane waves:    1759
 k-point 68 :   0.2500 0.0000 0.4000  plane waves:    1765
 k-point 69 :   0.3750 0.0000 0.4000  plane waves:    1761
 k-point 70 :   0.5000 0.0000 0.4000  plane waves:    1758
 k-point 71 :   0.0000 0.1250 0.4000  plane waves:    1759
 k-point 72 :   0.1250 0.1250 0.4000  plane waves:    1766
 k-point 73 :   0.2500 0.1250 0.4000  plane waves:    1766
 k-point 74 :   0.3750 0.1250 0.4000  plane waves:    1765
 k-point 75 :   0.5000 0.1250 0.4000  plane waves:    1764
 k-point 76 :   0.0000 0.2500 0.4000  plane waves:    1765
 k-point 77 :   0.1250 0.2500 0.4000  plane waves:    1766
 k-point 78 :   0.2500 0.2500 0.4000  plane waves:    1769
 k-point 79 :   0.3750 0.2500 0.4000  plane waves:    1755
 k-point 80 :   0.5000 0.2500 0.4000  plane waves:    1760
 k-point 81 :  -0.0000 0.3750 0.4000  plane waves:    1762
 k-point 82 :   0.1250 0.3750 0.4000  plane waves:    1765
 k-point 83 :   0.2500 0.3750 0.4000  plane waves:    1755
 k-point 84 :   0.3750 0.3750 0.4000  plane waves:    1770
 k-point 85 :   0.5000 0.3750 0.4000  plane waves:    1772
 k-point 86 :   0.0000 0.5000 0.4000  plane waves:    1758
 k-point 87 :   0.1250 0.5000 0.4000  plane waves:    1764
 k-point 88 :   0.2500 0.5000 0.4000  plane waves:    1760
 k-point 89 :   0.3750 0.5000 0.4000  plane waves:    1772
 k-point 90 :   0.5000 0.5000 0.4000  plane waves:    1768
 k-point 91 :  -0.0000-0.3750 0.4000  plane waves:    1760
 k-point 92 :   0.1250-0.3750 0.4000  plane waves:    1765
 k-point 93 :   0.2500-0.3750 0.4000  plane waves:    1755
 k-point 94 :   0.3750-0.3750 0.4000  plane waves:    1770
 k-point 95 :   0.5000-0.3750 0.4000  plane waves:    1772
 k-point 96 :   0.0000-0.2500 0.4000  plane waves:    1765
 k-point 97 :   0.1250-0.2500 0.4000  plane waves:    1766
 k-point 98 :   0.2500-0.2500 0.4000  plane waves:    1769
 k-point 99 :   0.3750-0.2500 0.4000  plane waves:    1755
 k-point ** :   0.5000-0.2500 0.4000  plane waves:    1760
 k-point ** :  -0.0000-0.1250 0.4000  plane waves:    1759
 k-point ** :   0.1250-0.1250 0.4000  plane waves:    1766
 k-point ** :   0.2500-0.1250 0.4000  plane waves:    1766
 k-point ** :   0.3750-0.1250 0.4000  plane waves:    1765
 k-point ** :   0.5000-0.1250 0.4000  plane waves:    1764

 maximum and minimum number of plane-waves per node :      1793     1755

 maximum number of plane-waves:      1793
 maximum index in each direction: 
   IXMAX=    6   IYMAX=    7   IZMAX=    9
   IXMIN=   -7   IYMIN=   -7   IZMIN=   -9


 serial   3D FFT for wavefunctions
 parallel 3D FFT for charge:
    minimum data exchange during FFTs selected (reduces bandwidth)


 total amount of memory used by VASP MPI-rank0    67668. kBytes
=======================================================================

   base      :      30000. kBytes
   nonlr-proj:       5709. kBytes
   fftplans  :       1207. kBytes
   grid      :       5092. kBytes
   one-center:        393. kBytes
   wavefun   :      25267. kBytes
 
     INWAV:  cpu time    0.0000: real time    0.0001
 Broyden mixing: mesh for mixing (old mesh)
   NGX = 13   NGY = 13   NGZ = 19
  (NGX  = 56   NGY  = 56   NGZ  = 80)
  gives a total of   3211 points

 charge density for first step will be calculated from the start-wavefunctions


--------------------------------------------------------------------------------------------------------


 Maximum index for non-local projection operator         8361
 Maximum index for augmentation-charges         3377 (set IRDMAX)


--------------------------------------------------------------------------------------------------------


 initial charge from wavefunction
 First call to EWALD:  gamma=   0.440
 Maximum number of real-space cells 3x 3x 2
 Maximum number of reciprocal cells 3x 3x 3

    FEWALD:  cpu time    0.0012: real time    0.0012


--------------------------------------- Iteration      1(   1)  ---------------------------------------


    POTLOK:  cpu time    0.0618: real time    0.0981
    SETDIJ:  cpu time    0.0112: real time    0.0112
     EDDAV:  cpu time   11.0293: real time   11.0712
 BZINTS: Fermi energy: -8.158613; 46.000000 electrons
         Band energy:***********;  BLOECHL correction: -1.563020
       DOS:  cpu time    0.0971: real time    0.0974
    --------------------------------------------
      LOOP:  cpu time   11.1994: real time   11.2779

 eigenvalue-minimisations  : 18848
 total energy-change (2. order) :-0.2286342E+03  (-0.2611475E+04)
 number of electron      46.0000001 magnetization      -0.0000000
 augmentation part        7.6407853 magnetization       0.0244032

 Free energy of the ion-electron system (eV)
  ---------------------------------------------------
  alpha Z        PSCENC =       453.10561966
  Ewald energy   TEWEN  =     -4853.25055448
  -Hartree energ DENC   =      -509.12853986
  -exchange      EXHF   =         0.00000000
  -V(xc)+E(xc)   XCENC  =       178.33566363
  PAW double counting   =      7587.59243868    -7806.36079988
  entropy T*S    EENTRO =         0.00000000
  eigenvalues    EBANDS =     -1383.25800866
  atomic energy  EATOM  =      6104.32994346
  Solvation  Ediel_sol  =         0.00000000
  ---------------------------------------------------
  free energy    TOTEN  =      -228.63423745 eV

  energy without entropy =     -228.63423745  energy(sigma->0) =     -228.63423745


--------------------------------------------------------------------------------------------------------




--------------------------------------- Iteration      1(   2)  ---------------------------------------


     EDDAV:  cpu time    9.6302: real time    9.6570
 BZINTS: Fermi energy:-23.871016; 46.000000 electrons
         Band energy:***********;  BLOECHL correction: -0.008754
       DOS:  cpu time    0.0885: real time    0.0888
    --------------------------------------------
      LOOP:  cpu time    9.7186: real time    9.7458

 eigenvalue-minimisations  : 16376
 total energy-change (2. order) :-0.5816075E+03  (-0.4541316E+03)
 number of electron      46.0000001 magnetization      -0.0000000
 augmentation part        7.6407853 magnetization       0.0244032

 Free energy of the ion-electron system (eV)
  ---------------------------------------------------
  alpha Z        PSCENC =       453.10561966
  Ewald energy   TEWEN  =     -4853.25055448
  -Hartree energ DENC   =      -509.12853986
  -exchange      EXHF   =         0.00000000
  -V(xc)+E(xc)   XCENC  =       178.33566363
  PAW double counting   =      7587.59243868    -7806.36079988
  entropy T*S    EENTRO =         0.00000000
  eigenvalues    EBANDS =     -1964.86552158
  atomic energy  EATOM  =      6104.32994346
  Solvation  Ediel_sol  =         0.00000000
  ---------------------------------------------------
  free energy    TOTEN  =      -810.24175037 eV

  energy without entropy =     -810.24175037  energy(sigma->0) =     -810.24175037


--------------------------------------------------------------------------------------------------------




--------------------------------------- Iteration      1(   3)  ---------------------------------------


     EDDAV:  cpu time   10.4433: real time   10.4698
 BZINTS: Fermi energy:-28.039664; 46.000000 electrons
         Band energy:***********;  BLOECHL correction:  0.000000
       DOS:  cpu time    0.0163: real time    0.0163
    --------------------------------------------
      LOOP:  cpu time   10.4596: real time   10.4862

 eigenvalue-minimisations  : 17544
 total energy-change (2. order) :-0.1104342E+03  (-0.1075079E+03)
 number of electron      46.0000001 magnetization      -0.0000000
 augmentation part        7.6407853 magnetization       0.0244032

 Free energy of the ion-electron system (eV)
  ---------------------------------------------------
  alpha Z        PSCENC =       453.10561966
  Ewald energy   TEWEN  =     -4853.25055448
  -Hartree energ DENC   =      -509.12853986
  -exchange      EXHF   =         0.00000000
  -V(xc)+E(xc)   XCENC  =       178.33566363
  PAW double counting   =      7587.59243868    -7806.36079988
  entropy T*S    EENTRO =         0.00000000
  eigenvalues    EBANDS =     -2075.29973975
  atomic energy  EATOM  =      6104.32994346
  Solvation  Ediel_sol  =         0.00000000
  ---------------------------------------------------
  free energy    TOTEN  =      -920.67596854 eV

  energy without entropy =     -920.67596854  energy(sigma->0) =     -920.67596854


--------------------------------------------------------------------------------------------------------




--------------------------------------- Iteration      1(   4)  ---------------------------------------


     EDDAV:  cpu time   10.1665: real time   10.1931
 BZINTS: Fermi energy:-28.605751; 46.000000 electrons
         Band energy:***********;  BLOECHL correction:  0.000000
       DOS:  cpu time    0.0135: real time    0.0135
    --------------------------------------------
      LOOP:  cpu time   10.1800: real time   10.2066

 eigenvalue-minimisations  : 16912
 total energy-change (2. order) :-0.6840167E+01  (-0.6837873E+01)
 number of electron      46.0000001 magnetization      -0.0000000
 augmentation part        7.6407853 magnetization       0.0244032

 Free energy of the ion-electron system (eV)
  ---------------------------------------------------
  alpha Z        PSCENC =       453.10561966
  Ewald energy   TEWEN  =     -4853.25055448
  -Hartree energ DENC   =      -509.12853986
  -exchange      EXHF   =         0.00000000
  -V(xc)+E(xc)   XCENC  =       178.33566363
  PAW double counting   =      7587.59243868    -7806.36079988
  entropy T*S    EENTRO =         0.00000000
  eigenvalues    EBANDS =     -2082.13990649
  atomic energy  EATOM  =      6104.32994346
  Solvation  Ediel_sol  =         0.00000000
  ---------------------------------------------------
  free energy    TOTEN  =      -927.51613528 eV

  energy without entropy =     -927.51613528  energy(sigma->0) =     -927.51613528


--------------------------------------------------------------------------------------------------------




--------------------------------------- Iteration      1(   5)  ---------------------------------------


     EDDAV:  cpu time   12.5614: real time   12.5944
 BZINTS: Fermi energy:-28.494456; 46.000000 electrons
         Band energy:***********;  BLOECHL correction:  0.000000
       DOS:  cpu time    0.0158: real time    0.0158
    CHARGE:  cpu time    0.2717: real time    0.2724
    MIXING:  cpu time    0.0011: real time    0.0011
    --------------------------------------------
      LOOP:  cpu time   12.8500: real time   12.8837

 eigenvalue-minimisations  : 21872
 total energy-change (2. order) :-0.6177263E+00  (-0.6176353E+00)
 number of electron      46.0000041 magnetization      -0.0000000
 augmentation part       14.3797318 magnetization      -0.0016834

 Broyden mixing:
  rms(total) = 0.21161E+02    rms(broyden)= 0.21138E+02
  rms(prec ) = 0.35800E+02
  weight for this iteration     100.00

 Free energy of the ion-electron system (eV)
  ---------------------------------------------------
  alpha Z        PSCENC =       453.10561966
  Ewald energy   TEWEN  =     -4853.25055448
  -Hartree energ DENC   =      -509.12853986
  -exchange      EXHF   =         0.00000000
  -V(xc)+E(xc)   XCENC  =       178.33566363
  PAW double counting   =      7587.59243868    -7806.36079988
  entropy T*S    EENTRO =         0.00000000
  eigenvalues    EBANDS =     -2082.75763277
  atomic energy  EATOM  =      6104.32994346
  Solvation  Ediel_sol  =         0.00000000
  ---------------------------------------------------
  free energy    TOTEN  =      -928.13386156 eV

  energy without entropy =     -928.13386156  energy(sigma->0) =     -928.13386156


--------------------------------------------------------------------------------------------------------




--------------------------------------- Iteration      1(   6)  ---------------------------------------


    POTLOK:  cpu time    0.0373: real time    0.0376
    SETDIJ:  cpu time    0.0109: real time    0.0109
     EDDAV:  cpu time   12.3239: real time   12.3561
 BZINTS: Fermi energy: -3.944532; 46.000000 electrons
         Band energy:***********;  BLOECHL correction: -0.222435
       DOS:  cpu time    0.1001: real time    0.1003
    CHARGE:  cpu time    0.2929: real time    0.2936
    MIXING:  cpu time    0.0013: real time    0.0013
    --------------------------------------------
      LOOP:  cpu time   12.7664: real time   12.7998

 eigenvalue-minimisations  : 21352
 total energy-change (2. order) :-0.4350091E+02  (-0.6604890E+03)
 number of electron      46.0000030 magnetization       0.0477028
 augmentation part       15.4391827 magnetization      -0.0375415

 Broyden mixing:
  rms(total) = 0.19382E+02    rms(broyden)= 0.19381E+02
  rms(prec ) = 0.32877E+02
  weight for this iteration     100.00

 eigenvalues of (default mixing * dielectric matrix)
  average eigenvalue GAMMA=   0.5310
  0.5310

 Free energy of the ion-electron system (eV)
  ---------------------------------------------------
  alpha Z        PSCENC =       453.10561966
  Ewald energy   TEWEN  =     -4853.25055448
  -Hartree energ DENC   =      -933.52717457
  -exchange      EXHF   =         0.00000000
  -V(xc)+E(xc)   XCENC  =       200.38212409
  PAW double counting   =      7010.67164641    -7370.76044471
  entropy T*S    EENTRO =         0.00000000
  eigenvalues    EBANDS =     -1582.58593404
  atomic energy  EATOM  =      6104.32994346
  Solvation  Ediel_sol  =         0.00000000
  ---------------------------------------------------
  free energy    TOTEN  =      -971.63477418 eV

  energy without entropy =     -971.63477418  energy(sigma->0) =     -971.63477418


--------------------------------------------------------------------------------------------------------




--------------------------------------- Iteration      1(   7)  ---------------------------------------


    POTLOK:  cpu time    0.0359: real time    0.0364
    SETDIJ:  cpu time    0.0112: real time    0.0112
     EDDAV:  cpu time   10.2879: real time   10.3157
 BZINTS: Fermi energy: -0.956925; 46.000000 electrons
         Band energy:-689.762819;  BLOECHL correction: -0.000149
       DOS:  cpu time    0.0769: real time    0.0771
    CHARGE:  cpu time    0.2712: real time    0.2721
    MIXING:  cpu time    0.0010: real time    0.0010
    --------------------------------------------
      LOOP:  cpu time   10.6841: real time   10.7134

 eigenvalue-minimisations  : 17208
 total energy-change (2. order) : 0.8387150E+03  (-0.7454422E+02)
 number of electron      46.0000026 magnetization      -0.0079870
 augmentation part       14.4688270 magnetization      -0.0094327

 Broyden mixing:
  rms(total) = 0.13481E+02    rms(broyden)= 0.13481E+02
  rms(prec ) = 0.22374E+02
  weight for this iteration     100.00

 eigenvalues of (default mixing * dielectric matrix)
  average eigenvalue GAMMA=   0.3893
  0.3893  0.3893

 Free energy of the ion-electron system (eV)
  ---------------------------------------------------
  alpha Z        PSCENC =       453.10561966
  Ewald energy   TEWEN  =     -4853.25055448
  -Hartree energ DENC   =     -1011.80331267
  -exchange      EXHF   =         0.00000000
  -V(xc)+E(xc)   XCENC  =       205.58855702
  PAW double counting   =      6691.93298152    -7033.06021839
  entropy T*S    EENTRO =         0.00000000
  eigenvalues    EBANDS =      -689.76281915
  atomic energy  EATOM  =      6104.32994346
  Solvation  Ediel_sol  =         0.00000000
  ---------------------------------------------------
  free energy    TOTEN  =      -132.91980304 eV

  energy without entropy =     -132.91980304  energy(sigma->0) =     -132.91980304


--------------------------------------------------------------------------------------------------------




--------------------------------------- Iteration      1(   8)  ---------------------------------------


    POTLOK:  cpu time    0.0355: real time    0.0357
    SETDIJ:  cpu time    0.0105: real time    0.0105
     EDDAV:  cpu time   13.3518: real time   13.3861
 BZINTS: Fermi energy:  0.148611; 46.000000 electrons
         Band energy:-817.944076;  BLOECHL correction: -0.075740
       DOS:  cpu time    0.1021: real time    0.1024
    CHARGE:  cpu time    0.2801: real time    0.2808
    MIXING:  cpu time    0.0011: real time    0.0011
    --------------------------------------------
      LOOP:  cpu time   13.7810: real time   13.8165

 eigenvalue-minimisations  : 23448
 total energy-change (2. order) :-0.2739495E+03  (-0.3061044E+03)
 number of electron      46.0000016 magnetization      -0.0102828
 augmentation part       13.4068833 magnetization       0.0472951

 Broyden mixing:
  rms(total) = 0.12188E+02    rms(broyden)= 0.12188E+02
  rms(prec ) = 0.25728E+02
  weight for this iteration     100.00

 eigenvalues of (default mixing * dielectric matrix)
  average eigenvalue GAMMA=   0.7910
  1.3199  0.5266  0.5266

 Free energy of the ion-electron system (eV)
  ---------------------------------------------------
  alpha Z        PSCENC =       453.10561966
  Ewald energy   TEWEN  =     -4853.25055448
  -Hartree energ DENC   =     -1150.98132625
  -exchange      EXHF   =         0.00000000
  -V(xc)+E(xc)   XCENC  =       211.42221421
  PAW double counting   =      6407.94216226    -6761.49330603
  entropy T*S    EENTRO =         0.00000000
  eigenvalues    EBANDS =      -817.94407553
  atomic energy  EATOM  =      6104.32994346
  Solvation  Ediel_sol  =         0.00000000
  ---------------------------------------------------
  free energy    TOTEN  =      -406.86932272 eV

  energy without entropy =     -406.86932272  energy(sigma->0) =     -406.86932272


--------------------------------------------------------------------------------------------------------




--------------------------------------- Iteration      1(   9)  ---------------------------------------


    POTLOK:  cpu time    0.0364: real time    0.0366
    SETDIJ:  cpu time    0.0116: real time    0.0117
     EDDAV:  cpu time   14.3015: real time   14.3392
 BZINTS: Fermi energy:  7.482219; 46.000000 electrons
         Band energy:-287.527812;  BLOECHL correction: -0.093770
       DOS:  cpu time    0.1063: real time    0.1065
    CHARGE:  cpu time    0.2955: real time    0.2962
    MIXING:  cpu time    0.0009: real time    0.0009
    --------------------------------------------
      LOOP:  cpu time   14.7522: real time   14.7912

 eigenvalue-minimisations  : 25232
 total energy-change (2. order) : 0.3276266E+03  (-0.1515291E+03)
 number of electron      46.0000017 magnetization       0.0226864
 augmentation part        9.2117276 magnetization       0.0336867

 Broyden mixing:
  rms(total) = 0.93861E+01    rms(broyden)= 0.93860E+01
  rms(prec ) = 0.15290E+02
  weight for this iteration     100.00

 eigenvalues of (default mixing * dielectric matrix)
  average eigenvalue GAMMA=   0.8766
  1.2679  1.2679  0.4854  0.4854

 Free energy of the ion-electron system (eV)
  ---------------------------------------------------
  alpha Z        PSCENC =       453.10561966
  Ewald energy   TEWEN  =     -4853.25055448
  -Hartree energ DENC   =     -1313.84226475
  -exchange      EXHF   =         0.00000000
  -V(xc)+E(xc)   XCENC  =       219.23374616
  PAW double counting   =      6270.90515963    -6672.19656280
  entropy T*S    EENTRO =         0.00000000
  eigenvalues    EBANDS =      -287.52781175
  atomic energy  EATOM  =      6104.32994346
  Solvation  Ediel_sol  =         0.00000000
  ---------------------------------------------------
  free energy    TOTEN  =       -79.24272489 eV

  energy without entropy =      -79.24272489  energy(sigma->0) =      -79.24272489


--------------------------------------------------------------------------------------------------------




--------------------------------------- Iteration      1(  10)  ---------------------------------------


    POTLOK:  cpu time    0.0353: real time    0.0355
    SETDIJ:  cpu time    0.0112: real time    0.0112
     EDDAV:  cpu time   13.8750: real time   13.9115
 BZINTS: Fermi energy:  0.811361; 46.000000 electrons
         Band energy:-605.850679;  BLOECHL correction:  0.000000
       DOS:  cpu time    0.0200: real time    0.0200
    CHARGE:  cpu time    0.2703: real time    0.2711
    MIXING:  cpu time    0.0011: real time    0.0011
    --------------------------------------------
      LOOP:  cpu time   14.2128: real time   14.2504

 eigenvalue-minimisations  : 24416
 total energy-change (2. order) :-0.1441413E+03  (-0.3544952E+02)
 number of electron      46.0000021 magnetization      -0.0176148
 augmentation part       13.3973762 magnetization      -0.0165661

 Broyden mixing:
  rms(total) = 0.10538E+02    rms(broyden)= 0.10538E+02
  rms(prec ) = 0.21213E+02
  weight for this iteration     100.00

 eigenvalues of (default mixing * dielectric matrix)
  average eigenvalue GAMMA=   0.9415
  1.6737  1.6737  0.4791  0.4791  0.4018

 Free energy of the ion-electron system (eV)
  ---------------------------------------------------
  alpha Z        PSCENC =       453.10561966
  Ewald energy   TEWEN  =     -4853.25055448
  -Hartree energ DENC   =     -1200.30978460
  -exchange      EXHF   =         0.00000000
  -V(xc)+E(xc)   XCENC  =       213.66030904
  PAW double counting   =      5926.73709250    -6261.80592458
  entropy T*S    EENTRO =         0.00000000
  eigenvalues    EBANDS =      -605.85067933
  atomic energy  EATOM  =      6104.32994346
  Solvation  Ediel_sol  =         0.00000000
  ---------------------------------------------------
  free energy    TOTEN  =      -223.38397833 eV

  energy without entropy =     -223.38397833  energy(sigma->0) =     -223.38397833


--------------------------------------------------------------------------------------------------------




--------------------------------------- Iteration      1(  11)  ---------------------------------------


    POTLOK:  cpu time    0.0354: real time    0.0357
    SETDIJ:  cpu time    0.0118: real time    0.0118
     EDDAV:  cpu time   11.0010: real time   11.0294
 BZINTS: Fermi energy:  6.155951; 46.000000 electrons
         Band energy:-332.589796;  BLOECHL correction: -0.062580
       DOS:  cpu time    0.1094: real time    0.1096
    CHARGE:  cpu time    0.2934: real time    0.2941
    MIXING:  cpu time    0.0011: real time    0.0011
    --------------------------------------------
      LOOP:  cpu time   11.4521: real time   11.4816

 eigenvalue-minimisations  : 19200
 total energy-change (2. order) : 0.1881082E+03  (-0.1796385E+02)
 number of electron      46.0000020 magnetization      -0.0143601
 augmentation part       11.3109167 magnetization      -0.0224275

 Broyden mixing:
  rms(total) = 0.70356E+01    rms(broyden)= 0.70356E+01
  rms(prec ) = 0.15149E+02
  weight for this iteration     100.00

 eigenvalues of (default mixing * dielectric matrix)
  average eigenvalue GAMMA=   0.8593
  2.2521  1.3861  0.4911  0.4911  0.4006  0.1349

 Free energy of the ion-electron system (eV)
  ---------------------------------------------------
  alpha Z        PSCENC =       453.10561966
  Ewald energy   TEWEN  =     -4853.25055448
  -Hartree energ DENC   =     -1284.57616752
  -exchange      EXHF   =         0.00000000
  -V(xc)+E(xc)   XCENC  =       217.03019595
  PAW double counting   =      5717.94415005    -6057.26913920
  entropy T*S    EENTRO =         0.00000000
  eigenvalues    EBANDS =      -332.58979649
  atomic energy  EATOM  =      6104.32994346
  Solvation  Ediel_sol  =         0.00000000
  ---------------------------------------------------
  free energy    TOTEN  =       -35.27574858 eV

  energy without entropy =      -35.27574858  energy(sigma->0) =      -35.27574858


--------------------------------------------------------------------------------------------------------




--------------------------------------- Iteration      1(  12)  ---------------------------------------


    POTLOK:  cpu time    0.0360: real time    0.0363
    SETDIJ:  cpu time    0.0111: real time    0.0111
     EDDAV:  cpu time   11.1716: real time   11.1999
 BZINTS: Fermi energy:  6.619135; 46.000000 electrons
         Band energy:-303.625470;  BLOECHL correction: -0.002899
       DOS:  cpu time    0.1002: real time    0.1004
    CHARGE:  cpu time    0.2677: real time    0.2685
    MIXING:  cpu time    0.0012: real time    0.0012
    --------------------------------------------
      LOOP:  cpu time   11.5876: real time   11.6173

 eigenvalue-minimisations  : 18848
 total energy-change (2. order) : 0.2414982E+01  (-0.7201575E+01)
 number of electron      46.0000022 magnetization      -0.0273299
 augmentation part        9.6349359 magnetization       0.0042607

 Broyden mixing:
  rms(total) = 0.60229E+01    rms(broyden)= 0.60228E+01
  rms(prec ) = 0.11402E+02
  weight for this iteration     100.00

 eigenvalues of (default mixing * dielectric matrix)
  average eigenvalue GAMMA=   0.8113
  2.1874  1.3773  0.6543  0.4743  0.4743  0.2559  0.2559

 Free energy of the ion-electron system (eV)
  ---------------------------------------------------
  alpha Z        PSCENC =       453.10561966
  Ewald energy   TEWEN  =     -4853.25055448
  -Hartree energ DENC   =     -1314.86160721
  -exchange      EXHF   =         0.00000000
  -V(xc)+E(xc)   XCENC  =       218.71170932
  PAW double counting   =      5631.38293725    -5968.65334448
  entropy T*S    EENTRO =         0.00000000
  eigenvalues    EBANDS =      -303.62546984
  atomic energy  EATOM  =      6104.32994346
  Solvation  Ediel_sol  =         0.00000000
  ---------------------------------------------------
  free energy    TOTEN  =       -32.86076634 eV

  energy without entropy =      -32.86076634  energy(sigma->0) =      -32.86076634


--------------------------------------------------------------------------------------------------------




--------------------------------------- Iteration      1(  13)  ---------------------------------------


    POTLOK:  cpu time    0.0370: real time    0.0372
    SETDIJ:  cpu time    0.0105: real time    0.0106
     EDDAV:  cpu time   13.0581: real time   13.0918
 BZINTS: Fermi energy:  3.513547; 46.000000 electrons
         Band energy:-350.345069;  BLOECHL correction:  0.000000
       DOS:  cpu time    0.0162: real time    0.0163
    CHARGE:  cpu time    0.2698: real time    0.2704
    MIXING:  cpu time    0.0012: real time    0.0012
    --------------------------------------------
      LOOP:  cpu time   13.3928: real time   13.4274

 eigenvalue-minimisations  : 22560
 total energy-change (2. order) :-0.2111848E+02  (-0.4618405E+01)
 number of electron      46.0000022 magnetization      -0.0316831
 augmentation part       12.4848374 magnetization      -0.0290364

 Broyden mixing:
  rms(total) = 0.76806E+01    rms(broyden)= 0.76806E+01
  rms(prec ) = 0.17716E+02
  weight for this iteration     100.00

 eigenvalues of (default mixing * dielectric matrix)
  average eigenvalue GAMMA=   0.7297
  2.2164  1.3438  0.6677  0.4780  0.4780  0.2335  0.2335  0.1862

 Free energy of the ion-electron system (eV)
  ---------------------------------------------------
  alpha Z        PSCENC =       453.10561966
  Ewald energy   TEWEN  =     -4853.25055448
  -Hartree energ DENC   =     -1302.17898452
  -exchange      EXHF   =         0.00000000
  -V(xc)+E(xc)   XCENC  =       218.28025695
  PAW double counting   =      5568.68203455    -5892.60249535
  entropy T*S    EENTRO =         0.00000000
  eigenvalues    EBANDS =      -350.34506923
  atomic energy  EATOM  =      6104.32994346
  Solvation  Ediel_sol  =         0.00000000
  ---------------------------------------------------
  free energy    TOTEN  =       -53.97924897 eV

  energy without entropy =      -53.97924897  energy(sigma->0) =      -53.97924897


--------------------------------------------------------------------------------------------------------




--------------------------------------- Iteration      1(  14)  ---------------------------------------


    POTLOK:  cpu time    0.0365: real time    0.0368
    SETDIJ:  cpu time    0.0109: real time    0.0109
     EDDAV:  cpu time   14.3972: real time   14.4347
 BZINTS: Fermi energy:  2.780277; 46.000000 electrons
         Band energy:-361.334814;  BLOECHL correction:  0.000000
       DOS:  cpu time    0.0159: real time    0.0159
    CHARGE:  cpu time    0.2673: real time    0.2680
    MIXING:  cpu time    0.0012: real time    0.0012
    --------------------------------------------
      LOOP:  cpu time   14.7289: real time   14.7674

 eigenvalue-minimisations  : 25528
 total energy-change (2. order) :-0.8201736E+01  (-0.1890596E+00)
 number of electron      46.0000022 magnetization      -0.0302032
 augmentation part       12.4738419 magnetization      -0.0286640

 Broyden mixing:
  rms(total) = 0.76509E+01    rms(broyden)= 0.76509E+01
  rms(prec ) = 0.17912E+02
  weight for this iteration     100.00

 eigenvalues of (default mixing * dielectric matrix)
  average eigenvalue GAMMA=   0.6534
  2.2164  1.3425  0.6709  0.4772  0.4772  0.2298  0.2298  0.1186  0.1186

[...]
  2.9124  2.4715  2.0026  2.0026  1.9454  1.5804  0.8996  0.9119  0.9119  1.0683
  0.9460  0.9460  0.6771  0.6771  0.6704  0.6704  0.4580  0.4580  0.6426  0.5626
  0.5626  0.2303  0.4494  0.4494  0.3712  0.3712  0.1040  0.1040  0.2296  0.2296
  0.2094  0.2094  0.1257  0.1257  0.1342  0.0656  0.0656  0.0354  0.0354  0.0147
  0.0106  0.0106  0.0037  0.0037

 Free energy of the ion-electron system (eV)
  ---------------------------------------------------
  alpha Z        PSCENC =       453.10561966
  Ewald energy   TEWEN  =     -4853.25055448
  -Hartree energ DENC   =     -1376.43502245
  -exchange      EXHF   =         0.00000000
  -V(xc)+E(xc)   XCENC  =       222.54220506
  PAW double counting   =      5493.57491969    -5790.44216519
  entropy T*S    EENTRO =         0.00000000
  eigenvalues    EBANDS = ******************
  atomic energy  EATOM  =      6104.32994346
  Solvation  Ediel_sol  =         0.00000000
  ---------------------------------------------------
  free energy    TOTEN  = ****************** eV

  energy without entropy =******************  energy(sigma->0) =******************


--------------------------------------------------------------------------------------------------------




--------------------------------------- Iteration      1(  80)  ---------------------------------------


    POTLOK:  cpu time    0.0395: real time    0.0396
    SETDIJ:  cpu time    0.0120: real time    0.0121
     EDDAV:  cpu time   14.4204: real time   14.4602
 BZINTS: Fermi energy:  5.966877; 46.000000 electrons
         Band energy:***********;  BLOECHL correction:**********
       DOS:  cpu time    0.2071: real time    0.2076
    CHARGE:  cpu time    0.3193: real time    0.3200
    MIXING:  cpu time    0.0058: real time    0.0061
    --------------------------------------------
      LOOP:  cpu time   15.0041: real time   15.0455

 eigenvalue-minimisations  : 24408
 total energy-change (2. order) :-0.3145245E+09  (-0.6568708E+09)
 number of electron      46.1167526 magnetization      -0.2726139
 augmentation part        7.6200441 magnetization       0.3924932

 Broyden mixing:
  rms(total) = 0.13801E+02    rms(broyden)= 0.13801E+02
  rms(prec ) = 0.14911E+02
  weight for this iteration     100.00

 eigenvalues of (default mixing * dielectric matrix)
  average eigenvalue GAMMA=   0.5424
  2.4734  2.4734  2.0759  2.0759  0.8682  1.1087  1.1087  0.9823  0.7158  0.7158
  0.5785  0.5785  0.6169  0.6169  0.4659  0.4659  0.4769  0.2234  0.3125  0.3125
  0.3833  0.3180  0.3180  0.1458  0.1458  0.1806  0.1806  0.2094  0.1626  0.0982
  0.0982  0.0500  0.0406  0.0406  0.0210  0.0210  0.0135  0.0075  0.0075  0.0083

 Free energy of the ion-electron system (eV)
  ---------------------------------------------------
  alpha Z        PSCENC =       453.10561966
  Ewald energy   TEWEN  =     -4853.25055448
  -Hartree energ DENC   =     -1377.18561666
  -exchange      EXHF   =         0.00000000
  -V(xc)+E(xc)   XCENC  =       222.68186729
  PAW double counting   =      5499.36806420    -5796.54292172
  entropy T*S    EENTRO =         0.00000000
  eigenvalues    EBANDS = ******************
  atomic energy  EATOM  =      6104.32994346
  Solvation  Ediel_sol  =         0.00000000
  ---------------------------------------------------
  free energy    TOTEN  = ****************** eV

  energy without entropy =******************  energy(sigma->0) =******************


--------------------------------------------------------------------------------------------------------




--------------------------------------- Iteration      1(  81)  ---------------------------------------


    POTLOK:  cpu time    0.0395: real time    0.0397
    SETDIJ:  cpu time    0.0127: real time    0.0127
     EDDAV:  cpu time   13.4729: real time   13.5111
 BZINTS: Fermi energy:  4.813492; 46.000000 electrons
         Band energy:***********;  BLOECHL correction:**********
       DOS:  cpu time    0.2019: real time    0.2023
    CHARGE:  cpu time    0.3225: real time    0.3233
    MIXING:  cpu time    0.0050: real time    0.0052
    --------------------------------------------
      LOOP:  cpu time   14.0545: real time   14.0944

 eigenvalue-minimisations  : 22544
 total energy-change (2. order) :-0.1937170E+09  (-0.7184630E+09)
 number of electron      46.0715254 magnetization      -0.2660728
 augmentation part        8.3325370 magnetization       0.8504383

 Broyden mixing:
  rms(total) = 0.17030E+02    rms(broyden)= 0.17030E+02
  rms(prec ) = 0.19602E+02
  weight for this iteration     100.00

 eigenvalues of (default mixing * dielectric matrix)
  average eigenvalue GAMMA=   0.5307
  2.4792  2.4792  2.0660  2.0660  0.9042  1.1130  1.1130  0.9845  0.7270  0.7270
  0.5711  0.5711  0.6061  0.6061  0.4605  0.4605  0.4823  0.3285  0.3285  0.2231
  0.3805  0.3120  0.3120  0.1551  0.1551  0.2187  0.1800  0.1800  0.1438  0.0983
  0.0983  0.0532  0.0382  0.0382  0.0281  0.0281  0.0128  0.0082  0.0082  0.0119
  0.0002

 Free energy of the ion-electron system (eV)
  ---------------------------------------------------
  alpha Z        PSCENC =       453.10561966
  Ewald energy   TEWEN  =     -4853.25055448
  -Hartree energ DENC   =     -1374.69017975
  -exchange      EXHF   =         0.00000000
  -V(xc)+E(xc)   XCENC  =       222.38527563
  PAW double counting   =      5472.03583395    -5766.52184749
  entropy T*S    EENTRO =         0.00000000
  eigenvalues    EBANDS = ******************
  atomic energy  EATOM  =      6104.32994346
  Solvation  Ediel_sol  =         0.00000000
  ---------------------------------------------------
  free energy    TOTEN  = ****************** eV

  energy without entropy =******************  energy(sigma->0) =******************


--------------------------------------------------------------------------------------------------------




--------------------------------------- Iteration      1(  82)  ---------------------------------------


    POTLOK:  cpu time    0.0399: real time    0.0403
    SETDIJ:  cpu time    0.0116: real time    0.0116
     EDDAV:  cpu time   14.8105: real time   14.8536
 BZINTS: Fermi energy:  4.734387; 46.000000 electrons
         Band energy:***********;  BLOECHL correction:**********
       DOS:  cpu time    0.2014: real time    0.2021
    CHARGE:  cpu time    0.3143: real time    0.3150
    MIXING:  cpu time    0.0054: real time    0.0056
    --------------------------------------------
      LOOP:  cpu time   15.3831: real time   15.4282

 eigenvalue-minimisations  : 25168
 total energy-change (2. order) :-0.5019491E+08  (-0.7817604E+09)
 number of electron      46.0760742 magnetization      -0.2675746
 augmentation part        8.1440596 magnetization       1.0593616

 Broyden mixing:
  rms(total) = 0.18839E+02    rms(broyden)= 0.18839E+02
  rms(prec ) = 0.20863E+02
  weight for this iteration     100.00

 eigenvalues of (default mixing * dielectric matrix)
  average eigenvalue GAMMA=   0.5205
  2.4946  2.4946  2.0547  2.0547  0.9135  1.1275  1.1275  0.9849  0.7223  0.7223
  0.5664  0.5664  0.6181  0.6181  0.4611  0.4611  0.3363  0.3363  0.4799  0.2239
  0.3846  0.3159  0.3159  0.1629  0.1629  0.2186  0.1772  0.1772  0.1390  0.0895
  0.0895  0.0493  0.0420  0.0420  0.0334  0.0334  0.0122  0.0104  0.0104  0.0137
  0.0137  0.0033

 Free energy of the ion-electron system (eV)
  ---------------------------------------------------
  alpha Z        PSCENC =       453.10561966
  Ewald energy   TEWEN  =     -4853.25055448
  -Hartree energ DENC   =     -1372.59979328
  -exchange      EXHF   =         0.00000000
  -V(xc)+E(xc)   XCENC  =       222.12433800
  PAW double counting   =      5461.39678971    -5754.50304582
  entropy T*S    EENTRO =         0.00000000
  eigenvalues    EBANDS = ******************
  atomic energy  EATOM  =      6104.32994346
  Solvation  Ediel_sol  =         0.00000000
  ---------------------------------------------------
  free energy    TOTEN  = ****************** eV

  energy without entropy =******************  energy(sigma->0) =******************


--------------------------------------------------------------------------------------------------------




--------------------------------------- Iteration      1(  83)  ---------------------------------------


    POTLOK:  cpu time    0.0391: real time    0.0392
    SETDIJ:  cpu time    0.0125: real time    0.0125
     EDDAV:  cpu time   13.5988: real time   13.6380
 BZINTS: Fermi energy:  4.700111; 46.000000 electrons
         Band energy:***********;  BLOECHL correction:**********
       DOS:  cpu time    0.2130: real time    0.2135
    CHARGE:  cpu time    0.3206: real time    0.3213
    MIXING:  cpu time    0.0052: real time    0.0054
    --------------------------------------------
      LOOP:  cpu time   14.1891: real time   14.2299

 eigenvalue-minimisations  : 22736
 total energy-change (2. order) :-0.3027789E+10  (-0.3823224E+10)
 number of electron      46.0985132 magnetization      -0.2689767
 augmentation part        8.0755179 magnetization       1.4235446

 Broyden mixing:
  rms(total) = 0.21692E+02    rms(broyden)= 0.21692E+02
  rms(prec ) = 0.23308E+02
  weight for this iteration     100.00

 eigenvalues of (default mixing * dielectric matrix)
  average eigenvalue GAMMA=   0.5087
  2.4971  2.4971  2.0607  2.0607  0.9083  1.1276  1.1276  0.9849  0.7259  0.7259
  0.5730  0.5730  0.6132  0.6132  0.4608  0.4608  0.4805  0.3305  0.3305  0.2120
  0.3827  0.3172  0.3172  0.1578  0.1578  0.2174  0.1784  0.1784  0.1411  0.0924
  0.0924  0.0365  0.0365  0.0506  0.0407  0.0407  0.0146  0.0105  0.0105  0.0041
  0.0170  0.0058  0.0101

 Free energy of the ion-electron system (eV)
  ---------------------------------------------------
  alpha Z        PSCENC =       453.10561966
  Ewald energy   TEWEN  =     -4853.25055448
  -Hartree energ DENC   =     -1372.58616499
  -exchange      EXHF   =         0.00000000
  -V(xc)+E(xc)   XCENC  =       222.14341295
  PAW double counting   =      5459.78337491    -5752.84933833
  entropy T*S    EENTRO =         0.00000000
  eigenvalues    EBANDS = ******************
  atomic energy  EATOM  =      6104.32994346
  Solvation  Ediel_sol  =         0.00000000
  ---------------------------------------------------
  free energy    TOTEN  = ****************** eV

  energy without entropy =******************  energy(sigma->0) =******************


--------------------------------------------------------------------------------------------------------




--------------------------------------- Iteration      1(  84)  ---------------------------------------


    POTLOK:  cpu time    0.0407: real time    0.0408
    SETDIJ:  cpu time    0.0130: real time    0.0131
     EDDAV:  cpu time   12.1943: real time   12.2298
 BZINTS: Fermi energy:  4.681902; 46.000000 electrons
         Band energy:***********;  BLOECHL correction:**********
       DOS:  cpu time    0.2106: real time    0.2113
    CHARGE:  cpu time    0.3290: real time    0.3298
    MIXING:  cpu time    0.0059: real time    0.0061
    --------------------------------------------
      LOOP:  cpu time   12.7935: real time   12.8308

 eigenvalue-minimisations  : 20368
 total energy-change (2. order) :-0.2657883E+10  (-0.6544093E+10)
 number of electron      46.1113512 magnetization      -0.2393964
 augmentation part        7.8774669 magnetization       1.1936704

 Broyden mixing:
  rms(total) = 0.22113E+02    rms(broyden)= 0.22113E+02
  rms(prec ) = 0.23541E+02
  weight for this iteration     100.00

 eigenvalues of (default mixing * dielectric matrix)
  average eigenvalue GAMMA=   0.4977
  2.4859  2.4859  2.0764  2.0764  0.9155  1.1639  1.1639  0.9433  0.7199  0.7199
  0.5901  0.5901  0.6100  0.6100  0.4645  0.4645  0.4868  0.2088  0.3828  0.2801
  0.2801  0.3178  0.3178  0.2205  0.1972  0.1972  0.1476  0.1476  0.1507  0.0939
  0.0939  0.0476  0.0418  0.0418  0.0288  0.0294  0.0294  0.0207  0.0098  0.0045
  0.0045  0.0170  0.0095  0.0095

 Free energy of the ion-electron system (eV)
  ---------------------------------------------------
  alpha Z        PSCENC =       453.10561966
  Ewald energy   TEWEN  =     -4853.25055448
  -Hartree energ DENC   =     -1372.52688909
  -exchange      EXHF   =         0.00000000
  -V(xc)+E(xc)   XCENC  =       222.22480908
  PAW double counting   =      5459.06458294    -5752.06852347
  entropy T*S    EENTRO =         0.00000000
  eigenvalues    EBANDS = ******************
  atomic energy  EATOM  =      6104.32994346
  Solvation  Ediel_sol  =         0.00000000
  ---------------------------------------------------
  free energy    TOTEN  = ****************** eV

  energy without entropy =******************  energy(sigma->0) =******************


--------------------------------------------------------------------------------------------------------




--------------------------------------- Iteration      1(  85)  ---------------------------------------


    POTLOK:  cpu time    0.0404: real time    0.0405
    SETDIJ:  cpu time    0.0120: real time    0.0121
     EDDAV:  cpu time   13.9856: real time   14.0254
 BZINTS: Fermi energy:  4.812961; 46.000000 electrons
         Band energy:***********;  BLOECHL correction:**********
       DOS:  cpu time    0.2186: real time    0.2192
    CHARGE:  cpu time    0.3296: real time    0.3305
    MIXING:  cpu time    0.0058: real time    0.0060
    --------------------------------------------
      LOOP:  cpu time   14.5920: real time   14.6336

 eigenvalue-minimisations  : 23496
 total energy-change (2. order) : 0.2667571E+10  (-0.3891039E+10)
 number of electron      46.0905255 magnetization      -0.2409918
 augmentation part        7.6201507 magnetization       1.2582115

 Broyden mixing:
  rms(total) = 0.21801E+02    rms(broyden)= 0.21801E+02
  rms(prec ) = 0.23016E+02
  weight for this iteration     100.00

 eigenvalues of (default mixing * dielectric matrix)
  average eigenvalue GAMMA=   0.4447
  2.3421  2.3421  2.0034  1.6638  1.0327  1.0327  0.8938  0.8938  0.6137  0.6137
  0.5093  0.4012  0.3350  0.3350  0.3125  0.3125  0.2843  0.2843  0.1917  0.1931
  0.1931  0.1333  0.1333  0.1259  0.1259  0.0841  0.0841  0.0616  0.0345  0.0345
  0.0363  0.0363  0.0230  0.0230  0.0155  0.0155  0.0191  0.0060  0.0060  0.0060

 Free energy of the ion-electron system (eV)
  ---------------------------------------------------
  alpha Z        PSCENC =       453.10561966
  Ewald energy   TEWEN  =     -4853.25055448
  -Hartree energ DENC   =     -1371.31558874
  -exchange      EXHF   =         0.00000000
  -V(xc)+E(xc)   XCENC  =       222.21957535
  PAW double counting   =      5456.62029855    -5748.88255909
  entropy T*S    EENTRO =         0.00000000
  eigenvalues    EBANDS = ******************
  atomic energy  EATOM  =      6104.32994346
  Solvation  Ediel_sol  =         0.00000000
  ---------------------------------------------------
  free energy    TOTEN  = ****************** eV

  energy without entropy =******************  energy(sigma->0) =******************


--------------------------------------------------------------------------------------------------------




--------------------------------------- Iteration      1(  86)  ---------------------------------------


    POTLOK:  cpu time    0.0405: real time    0.0407
    SETDIJ:  cpu time    0.0123: real time    0.0124
     EDDAV:  cpu time   14.4977: real time   14.5403
 BZINTS: Fermi energy:  4.692920; 46.000000 electrons
         Band energy:***********;  BLOECHL correction:**********
       DOS:  cpu time    0.2157: real time    0.2163
    CHARGE:  cpu time    0.3207: real time    0.3216
    MIXING:  cpu time    0.0052: real time    0.0054
    --------------------------------------------
      LOOP:  cpu time   15.0921: real time   15.1366

 eigenvalue-minimisations  : 24472
 total energy-change (2. order) :-0.2043025E+10  (-0.6061517E+10)
 number of electron      46.0890535 magnetization      -0.2408923
 augmentation part        7.6050148 magnetization       1.3642436

 Broyden mixing:
  rms(total) = 0.22009E+02    rms(broyden)= 0.22009E+02
  rms(prec ) = 0.23188E+02
  weight for this iteration     100.00

 eigenvalues of (default mixing * dielectric matrix)
  average eigenvalue GAMMA=   0.4343
  2.3425  2.3425  2.0079  1.6542  1.0354  1.0354  0.8955  0.8955  0.6157  0.6157
  0.5129  0.4015  0.3349  0.3349  0.3127  0.3127  0.2866  0.2866  0.1824  0.1794
  0.1794  0.1392  0.1392  0.1301  0.1301  0.0621  0.0841  0.0841  0.0320  0.0320
  0.0339  0.0339  0.0288  0.0288  0.0135  0.0135  0.0074  0.0074  0.0213  0.0159
  0.0030

 Free energy of the ion-electron system (eV)
  ---------------------------------------------------
  alpha Z        PSCENC =       453.10561966
  Ewald energy   TEWEN  =     -4853.25055448
  -Hartree energ DENC   =     -1369.53052848
  -exchange      EXHF   =         0.00000000
  -V(xc)+E(xc)   XCENC  =       222.05611766
  PAW double counting   =      5443.51037358    -5734.12028759
  entropy T*S    EENTRO =         0.00000000
  eigenvalues    EBANDS = ******************
  atomic energy  EATOM  =      6104.32994346
  Solvation  Ediel_sol  =         0.00000000
  ---------------------------------------------------
  free energy    TOTEN  = ****************** eV

  energy without entropy =******************  energy(sigma->0) =******************


--------------------------------------------------------------------------------------------------------




--------------------------------------- Iteration      1(  87)  ---------------------------------------


    POTLOK:  cpu time    0.0389: real time    0.0394
    SETDIJ:  cpu time    0.0132: real time    0.0132
     EDDAV:  cpu time   13.3799: real time   13.4194
 BZINTS: Fermi energy:  4.715798; 46.000000 electrons
         Band energy:***********;  BLOECHL correction:**********
       DOS:  cpu time    0.2093: real time    0.2098
    CHARGE:  cpu time    0.3282: real time    0.3292
    MIXING:  cpu time    0.0054: real time    0.0056
    --------------------------------------------
      LOOP:  cpu time   13.9749: real time   14.0165

 eigenvalue-minimisations  : 22152
 total energy-change (2. order) :-0.5165094E+10  (-0.1142556E+11)
 number of electron      46.0960027 magnetization      -0.2654052
 augmentation part        4.9668553 magnetization       3.6323033

 Broyden mixing:
  rms(total) = 0.26270E+02    rms(broyden)= 0.26270E+02
  rms(prec ) = 0.27123E+02
  weight for this iteration     100.00

 eigenvalues of (default mixing * dielectric matrix)
  average eigenvalue GAMMA=   0.4235
  2.3471  2.3471  1.8177  1.8177  1.0457  1.0457  0.8776  0.8776  0.6219  0.6219
  0.4400  0.4400  0.3775  0.3775  0.2928  0.2928  0.2773  0.2773  0.1863  0.1863
  0.1520  0.1510  0.1510  0.0832  0.0984  0.0984  0.1095  0.1095  0.0276  0.0276
  0.0195  0.0339  0.0339  0.0317  0.0317  0.0105  0.0061  0.0061  0.0002  0.0027
  0.0180  0.0161

 Free energy of the ion-electron system (eV)
  ---------------------------------------------------
  alpha Z        PSCENC =       453.10561966
  Ewald energy   TEWEN  =     -4853.25055448
  -Hartree energ DENC   =     -1369.54044994
  -exchange      EXHF   =         0.00000000
  -V(xc)+E(xc)   XCENC  =       222.05060253
  PAW double counting   =      5447.21194692    -5737.84183515
  entropy T*S    EENTRO =         0.00000000
  eigenvalues    EBANDS = ******************
  atomic energy  EATOM  =      6104.32994346
  Solvation  Ediel_sol  =         0.00000000
  ---------------------------------------------------
  free energy    TOTEN  = ****************** eV

  energy without entropy =******************  energy(sigma->0) =******************


--------------------------------------------------------------------------------------------------------




--------------------------------------- Iteration      1(  88)  ---------------------------------------


    POTLOK:  cpu time    0.0393: real time    0.0394
    SETDIJ:  cpu time    0.0124: real time    0.0124
Error EDDDAV: Call to ZHEGV failed. Returncode =   9 2  16
