       N       E                     dE             d eps       ncg     rms          rms(c)
DAV:   1     0.116933257384E+04    0.11693E+04   -0.31425E+04 26776   0.314E+03
DAV:   2     0.305667710862E+03   -0.86366E+03   -0.78792E+03 32368   0.634E+02
DAV:   3    -0.115328026310E+02   -0.31720E+03   -0.31019E+03 36000   0.334E+02
DAV:   4    -0.594751651958E+02   -0.47942E+02   -0.47010E+02 43088   0.126E+02
DAV:   5    -0.638752884012E+02   -0.44001E+01   -0.42217E+01 46840   0.402E+01    0.276E+01
DAV:   6    -0.752959545962E+02   -0.11421E+02   -0.94722E+01 38248   0.105E+02    0.329E+01
DAV:   7    -0.767169383961E+02   -0.14210E+01   -0.30844E+01 35648   0.614E+01    0.151E+01
DAV:   8    -0.745876933722E+02    0.21292E+01   -0.96946E+00 33840   0.473E+01    0.667E+00
DAV:   9    -0.751275154583E+02   -0.53982E+00   -0.99763E+00 40936   0.209E+01    0.715E+00
DAV:  10    -0.749212478400E+02    0.20627E+00   -0.22336E+00 36552   0.148E+01    0.397E+00
DAV:  11    -0.749713212318E+02   -0.50073E-01   -0.64634E-01 45872   0.596E+00    0.284E+00
DAV:  12    -0.749516770650E+02    0.19644E-01   -0.13217E-01 41024   0.260E+00    0.162E+00
DAV:  13    -0.749283723916E+02    0.23305E-01   -0.54492E-02 40888   0.192E+00    0.834E-01
DAV:  14    -0.749232388810E+02    0.51335E-02   -0.19327E-02 45280   0.884E-01    0.340E-01
DAV:  15    -0.749229181974E+02    0.32068E-03   -0.66724E-03 41816   0.619E-01    0.106E-01
DAV:  16    -0.749232560599E+02   -0.33786E-03   -0.14547E-03 46960   0.288E-01    0.149E-01
DAV:  17    -0.749230993180E+02    0.15674E-03   -0.48313E-04 41488   0.193E-01    0.806E-02
DAV:  18    -0.749230694812E+02    0.29837E-04   -0.13823E-04 46304   0.966E-02    0.281E-02
DAV:  19    -0.749230689268E+02    0.55441E-06   -0.17963E-05 42040   0.321E-02    0.218E-02
DAV:  20    -0.749230596131E+02    0.93137E-05   -0.66988E-06 26920   0.262E-02    0.552E-03
DAV:  21    -0.749230589552E+02    0.65790E-06   -0.25928E-06 22448   0.144E-02
   1 F= -.74923059E+02 E0= -.74923059E+02  d E =0.000000E+00  mag=    -0.0000
