=========================================
SLURM_JOB_ID = 31883054
SLURM_JOB_NODELIST = lnode37
SLURM_GPUS = 
SLURM_CPUS_ON_NODE = 8
SLURM_JOB_PARTITION = lenovo
SLURM_TASK_PID = 219145
CUDA_VISIBLE_DEVICES = 
==========================================
 running on    8 total cores
 distrk:  each k-point on    8 cores,    1 groups
 distr:  one band on    8 cores,    1 groups
 using from now: INCAR     
 vasp.5.4.4.18Apr17-6-g9f103f2a35 (build Apr 28 2018 00:24:27) complex          
  
 POSCAR found type information on POSCAR  Mn Bi
 POSCAR found :  2 types and       8 ions
 scaLAPACK will be used

 ----------------------------------------------------------------------------- 
|                                                                             |
|           W    W    AA    RRRRR   N    N  II  N    N   GGGG   !!!           |
|           W    W   A  A   R    R  NN   N  II  NN   N  G    G  !!!           |
|           W    W  A    A  R    R  N N  N  II  N N  N  G       !!!           |
|           W WW W  AAAAAA  RRRRR   N  N N  II  N  N N  G  GGG   !            |
|           WW  WW  A    A  R   R   N   NN  II  N   NN  G    G                |
|           W    W  A    A  R    R  N    N  II  N    N   GGGG   !!!           |
|                                                                             |
|      For optimal performance we recommend to set                            |
|        NCORE= 4 - approx SQRT( number of cores)                             |
|      NCORE specifies how many cores store one orbital (NPAR=cpu/NCORE).     |
|      This setting can  greatly improve the performance of VASP for DFT.     |
|      The default,   NCORE=1            might be grossly inefficient         |
|      on modern multi-core architectures or massively parallel machines.     |
|      Do your own testing !!!!                                               |
|      Unfortunately you need to use the default for GW and RPA calculations. |
|      (for HF NCORE is supported but not extensively tested yet)             |
|                                                                             |
 ----------------------------------------------------------------------------- 

 LDA part: xc-table for Pade appr. of Perdew
 generate k-points for:    3    2    2
 POSCAR, INCAR and KPOINTS ok, starting setup
 FFT: planning ...
 WAVECAR not read
 entering main loop
       N       E                     dE             d eps       ncg     rms          rms(c)
DAV:   1     0.353599914113E+03    0.35360E+03   -0.15892E+04   928   0.138E+03
DAV:   2     0.852361823430E+01   -0.34508E+03   -0.33492E+03   928   0.381E+02
DAV:   3    -0.446424251468E+02   -0.53166E+02   -0.50338E+02  1568   0.140E+02
DAV:   4    -0.496989450824E+02   -0.50565E+01   -0.48372E+01  1664   0.526E+01
DAV:   5    -0.499832193212E+02   -0.28427E+00   -0.27636E+00  1544   0.118E+01    0.191E+01
DAV:   6    -0.563573256300E+02   -0.63741E+01   -0.17718E+02  1808   0.152E+02    0.444E+01
DAV:   7    -0.452765646162E+02    0.11081E+02   -0.58218E+01  1590   0.831E+01    0.743E+00
DAV:   8    -0.458585001595E+02   -0.58194E+00   -0.68002E+00  1664   0.213E+01    0.460E+00
DAV:   9    -0.460155303585E+02   -0.15703E+00   -0.24894E+00  1752   0.259E+01    0.543E+00
DAV:  10    -0.458236991896E+02    0.19183E+00   -0.86980E-01  1664   0.148E+01    0.202E+00
DAV:  11    -0.458521112203E+02   -0.28412E-01   -0.21301E-01  1600   0.564E+00    0.150E+00
DAV:  12    -0.458633470612E+02   -0.11236E-01   -0.55697E-02  1632   0.350E+00    0.806E-01
DAV:  13    -0.458675683643E+02   -0.42213E-02   -0.24328E-02  1576   0.192E+00    0.253E-01
DAV:  14    -0.458678028117E+02   -0.23445E-03   -0.67416E-03  1648   0.139E+00    0.214E-01
DAV:  15    -0.458676675016E+02    0.13531E-03   -0.17193E-03  1672   0.830E-01    0.625E-02
DAV:  16    -0.458677080780E+02   -0.40576E-04   -0.49133E-04  1632   0.279E-01    0.435E-02
DAV:  17    -0.458677070855E+02    0.99243E-06   -0.10247E-04  1584   0.177E-01    0.218E-02
DAV:  18    -0.458677137699E+02   -0.66844E-05   -0.24503E-05  1560   0.677E-02    0.109E-02
DAV:  19    -0.458677158954E+02   -0.21255E-05   -0.98484E-06  1464   0.528E-02    0.390E-03
DAV:  20    -0.458677165723E+02   -0.67697E-06   -0.13115E-06   720   0.208E-02
   1 F= -.45867717E+02 E0= -.45865338E+02  d E =-.713670E-02  mag=     0.0001
