unknown system                          
   1.00000000000000     
     1.269537    1.453020    1.453020
     0.000000    2.850141   -2.850141
    -4.119474    1.616072    1.616072
   Fe
     4
Direct
  0.457638  0.000000  0.486607
  0.292362  0.500000  0.763393
  0.957638  0.000000  0.986607
  0.792362  0.500000  0.263393
 
   36   60   72
 0.90943215078E+03 0.66020209736E+03 0.98105329941E+03 0.95341538321E+03 0.72477893207E+03
 0.48875582739E+03 0.31236824583E+03 0.19651916940E+03 0.12473814014E+03 0.81339071014E+02
 0.55266821992E+02 0.39538908270E+02 0.29954128352E+02 0.23812688970E+02 0.20404695238E+02
 0.18269357996E+02 0.17185249887E+02 0.17009620626E+02 0.17721949618E+02 0.19426441064E+02
 0.22315237196E+02 0.27635651223E+02 0.36092622223E+02 0.50110148222E+02 0.73503942247E+02
 0.11260368443E+03 0.17737157479E+03 0.28174172006E+03 0.43967155487E+03 0.64751077334E+03
 0.83752708118E+03 0.82145026481E+03 0.46231122047E+03 0.69601345296E+03 0.31381790561E+04
 0.32193094698E+04 0.51013428090E+03 0.66192412143E+03 0.96305123154E+03 0.91642892850E+03
 0.69383593085E+03 0.46887266500E+03 0.30087212607E+03 0.19014054933E+03 0.12122988728E+03
 0.79391955296E+02 0.54162757737E+02 0.38892989002E+02 0.29560787906E+02 0.23577400777E+02
 0.20234338814E+02 0.18141093122E+02 0.17078952327E+02 0.16907579486E+02 0.17607239528E+02
 0.19281262298E+02 0.22120453820E+02 0.27315437593E+02 0.35569447368E+02 0.49216820836E+02
 0.71928806649E+02 0.10977408681E+03 0.17227514998E+03 0.27275170708E+03 0.42483783547E+03
 0.62699190713E+03 0.82245277713E+03 0.85042172736E+03 0.56632227216E+03 0.49281297261E+03
 0.15728626869E+04 0.15257961565E+04 0.44127514158E+03 0.75383294924E+03 0.91358837221E+03
 0.81688311524E+03 0.61122591143E+03 0.41540344840E+03 0.26962038182E+03 0.17260713996E+03
 0.11149093885E+03 0.73939408527E+02 0.51047299124E+02 0.37057500415E+02 0.28436453546E+02
 0.22897254002E+02 0.19741527721E+02 0.17769469679E+02 0.16770487653E+02 0.16611285091E+02
 0.17274345586E+02 0.18860302446E+02 0.21555728614E+02 0.26396913563E+02 0.34076860453E+02
 0.46683343232E+02 0.67489164737E+02 0.10185159787E+03 0.15809481187E+03 0.24785529691E+03
 0.38363211776E+03 0.56814329486E+03 0.76815366693E+03 0.88284583279E+03 0.78995810564E+03
 0.57420115475E+03 0.49579591203E+03 0.39661905535E+03 0.75329752586E+03 0.83862830795E+03
 0.81681929772E+03 0.67820288421E+03 0.50026765601E+03 0.34301847413E+03 0.22652554201E+03
 0.14794404038E+03 0.97534055848E+02 0.65992864899E+02 0.46439932270E+02 0.34309180574E+02
 0.26731040249E+02 0.21844579885E+02 0.18977560122E+02 0.17191510421E+02 0.16289202524E+02
 0.16148422859E+02 0.16754929993E+02 0.18204676378E+02 0.20676569353E+02 0.24993239461E+02
 0.31823972484E+02 0.42898677997E+02 0.60938618881E+02 0.90313368331E+02 0.13770402474E+03
 0.21239303110E+03 0.32482404542E+03 0.48054747325E+03 0.66633395196E+03 0.83364287152E+03
 0.90985633483E+03 0.86787095436E+03 0.76930970195E+03 0.70578668703E+03 0.83635704484E+03
 0.77312878166E+03 0.66596925411E+03 0.52562404941E+03 0.38468153741E+03 0.26719910264E+03
 0.18037841692E+03 0.12084945954E+03 0.81816464321E+02 0.56838622299E+02 0.41022425993E+02
 0.31014807279E+02 0.24653107508E+02 0.20525134104E+02 0.18017309348E+02 0.16461323504E+02
 0.15678101244E+02 0.15559635002E+02 0.16095496815E+02 0.17374866480E+02 0.19565051069E+02
 0.23266176077E+02 0.29090551175E+02 0.38386514200E+02 0.53262821913E+02 0.77036629587E+02
 0.11465868748E+03 0.17290340189E+03 0.25956873619E+03 0.38032643990E+03 0.53196953189E+03
 0.69418854586E+03 0.82980117805E+03 0.90410708583E+03 0.91124966050E+03 0.87894230916E+03
 0.69071673243E+03 0.60240929158E+03 0.49499075752E+03 0.38295372201E+03 0.28123418995E+03
 0.19892165697E+03 0.13782967972E+03 0.95143817481E+02 0.66472242648E+02 0.47657599310E+02
 0.35451167955E+02 0.27548802529E+02 0.22160322304E+02 0.19059946113E+02 0.16946317529E+02
 0.15640916285E+02 0.14986706381E+02 0.14891851847E+02 0.15349743303E+02 0.16440795274E+02
 0.18316693235E+02 0.21162458612E+02 0.26171336464E+02 0.33665117657E+02 0.45404920070E+02
 0.63747058546E+02 0.92104753391E+02 0.13502411290E+03 0.19769214751E+03 0.28425645735E+03
 0.39443098412E+03 0.51913480390E+03 0.63849684717E+03 0.72679593660E+03 0.76451457422E+03
 0.74884127842E+03 0.48782986673E+03 0.42077421606E+03 0.34293050458E+03 0.26593705975E+03
 0.19808638778E+03 0.14344668502E+03 0.10239564919E+03 0.73092338717E+02 0.52900268789E+02
 0.39295199935E+02 0.30231782176E+02 0.24215389047E+02 0.20106650203E+02 0.17566625162E+02
 0.15847688108E+02 0.14790923160E+02 0.14263853214E+02 0.14191529203E+02 0.14570729587E+02
 0.15471498256E+02 0.17026442319E+02 0.19404030315E+02 0.23312977080E+02 0.29151975493E+02
 0.38081570822E+02 0.51677524952E+02 0.72149411663E+02 0.10231951830E+03 0.14528955318E+03
 0.20346216789E+03 0.27672825187E+03 0.36010205696E+03 0.44220028155E+03 0.50680122254E+03
 0.53867272079E+03 0.53093832706E+03 0.31845017454E+03 0.27641040368E+03 0.22744706196E+03
 0.17910409862E+03 0.13638253791E+03 0.10159429108E+03 0.74967356979E+02 0.55505464375E+02
 0.41736731377E+02 0.32199958527E+02 0.25670099300E+02 0.20954480788E+02 0.18155868435E+02
 0.16144182915E+02 0.14791653724E+02 0.13963278918E+02 0.13551986463E+02 0.13499256355E+02
 0.13804555292E+02 0.14526597725E+02 0.15776655258E+02 0.17701094727E+02 0.20449174505E+02
 0.25118017115E+02 0.31713508747E+02 0.41479177163E+02 0.55762353857E+02 0.76200143567E+02
 0.10447633468E+03 0.14173089198E+03 0.18757139504E+03 0.23886678065E+03 0.28900265198E+03
 0.32867856736E+03 0.34888930825E+03 0.34490339362E+03 0.20102707995E+03 0.17670353004E+03
 0.14793808102E+03 0.11910636693E+03 0.93199547310E+02 0.71686938735E+02 0.54842691473E+02
 0.42214970502E+02 0.33036112679E+02 0.26496778131E+02 0.21889770888E+02 0.18578226157E+02
 0.16409159273E+02 0.14863955129E+02 0.13829527066E+02 0.13196996157E+02 0.12883844692E+02
 0.12846579905E+02 0.13086569436E+02 0.13651023122E+02 0.14629205511E+02 0.16141915216E+02
 0.18321058053E+02 0.21691606643E+02 0.26462130855E+02 0.33316853277E+02 0.43036801419E+02
 0.56516574025E+02 0.74588735022E+02 0.97677903229E+02 0.12527707689E+03 0.15538091842E+03
 0.18421721083E+03 0.20676051870E+03 0.21824075929E+03 0.21607833087E+03 0.12635984333E+03
 0.11273375075E+03 0.96345146467E+02 0.79592170884E+02 0.64209206469E+02 0.51136094755E+02
 0.40641603447E+02 0.32561772034E+02 0.26522817858E+02 0.22094667350E+02 0.18749750663E+02
 0.16558138200E+02 0.14924910943E+02 0.13767231874E+02 0.12992291053E+02 0.12517164013E+02
 0.12281611827E+02 0.12255143774E+02 0.12440301835E+02 0.12873378985E+02 0.13622571868E+02
 0.14782262543E+02 0.16461061434E+02 0.18761381170E+02 0.22297028710E+02 0.27041359608E+02
 0.33555387415E+02 0.42298764702E+02 0.53642419637E+02 0.67677806047E+02 0.83947169384E+02
 0.10119764568E+03 0.11732831647E+03 0.12970940771E+03 0.13592953904E+03 0.13469601129E+03
 0.80824178245E+02 0.73248076560E+02 0.63994860497E+02 0.54346718858E+02 0.45286162969E+02
 0.37393757705E+02 0.30892526753E+02 0.25746850974E+02 0.21789510986E+02 0.18645107036E+02
 0.16547784799E+02 0.14925192242E+02 0.13722347234E+02 0.12868449759E+02 0.12292887457E+02
 0.11936462551E+02 0.11757985012E+02 0.11737649348E+02 0.11878596246E+02 0.12207401029E+02
 0.12773445193E+02 0.13646289140E+02 0.14909330172E+02 0.16647737174E+02 0.18929737861E+02
 0.22355080802E+02 0.26694462427E+02 0.32327247208E+02 0.39395563436E+02 0.47862748004E+02
 0.57377819070E+02 0.67184297101E+02 0.76130306823E+02 0.82856452208E+02 0.86166971603E+02
 0.85431418216E+02 0.53562330102E+02 0.49319644167E+02 0.44070597329E+02 0.38495193607E+02
 0.33142111109E+02 0.28363607140E+02 0.24320431300E+02 0.21028788391E+02 0.18284894306E+02
 0.16372652710E+02 0.14843987044E+02 0.13666502257E+02 0.12790540219E+02 0.12161773519E+02
 0.11730646698E+02 0.11458094077E+02 0.11318311284E+02 0.11299845692E+02 0.11406042246E+02
 0.11655349361E+02 0.12081420920E+02 0.12732357118E+02 0.13667813206E+02 0.14952349429E+02
 0.16643812971E+02 0.18777081064E+02 0.21823475878E+02 0.25464110177E+02 0.29882108439E+02
 0.35004551923E+02 0.40588425472E+02 0.46185362058E+02 0.51167727028E+02 0.54834501546E+02
 0.56592813603E+02 0.56138095531E+02 0.37317555224E+02 0.34900657608E+02 0.31880297441E+02
 0.28615483794E+02 0.25413251150E+02 0.22483902613E+02 0.19652853179E+02 0.17715027909E+02
 0.16053541491E+02 0.14682509371E+02 0.13588410339E+02 0.12740211621E+02 0.12099522169E+02
 0.11628746132E+02 0.11296299097E+02 0.11079064434E+02 0.10962974247E+02 0.10942771051E+02
 0.11021775688E+02 0.11212064459E+02 0.11534982488E+02 0.12021439110E+02 0.12710988752E+02
 0.13648440198E+02 0.14876913909E+02 0.16427116235E+02 0.18304095717E+02 0.20474435280E+02
 0.23584086900E+02 0.26725447025E+02 0.30048223125E+02 0.33288793547E+02 0.36103670519E+02
 0.38132073361E+02 0.39073643175E+02 0.38785026783E+02 0.27589786951E+02 0.26182126872E+02
 0.24403717885E+02 0.22452280166E+02 0.20498327811E+02 0.18533363612E+02 0.16993015358E+02
 0.15624584144E+02 0.14455282210E+02 0.13487785010E+02 0.12707461976E+02 0.12090438592E+02
 0.11610715787E+02 0.11245213425E+02 0.10976422656E+02 0.10793051338E+02 0.10689449482E+02
 0.10664682662E+02 0.10721945795E+02 0.10868664494E+02 0.11117204291E+02 0.11485690617E+02
 0.11998121763E+02 0.12682815695E+02 0.13568365742E+02 0.14676793346E+02 0.16014502963E+02
 0.17562782600E+02 0.19270526193E+02 0.21052060725E+02 0.23415178218E+02 0.25337359937E+02
 0.26969244610E+02 0.28117425603E+02 0.28633959015E+02 0.28448016142E+02 0.21697212917E+02
 0.20583721655E+02 0.19603854778E+02 0.18488735907E+02 0.17324096707E+02 0.16184339604E+02
 0.15125471802E+02 0.14182302409E+02 0.13369631621E+02 0.12686419444E+02 0.12121504227E+02
 0.11659399547E+02 0.11284998784E+02 0.10986537807E+02 0.10756734150E+02 0.10592481857E+02
 0.10493750895E+02 0.10462400007E+02 0.10501477480E+02 0.10615293618E+02 0.10810175458E+02
 0.11095463269E+02 0.11484077601E+02 0.11991931923E+02 0.12635611466E+02 0.13428099403E+02
 0.14372904793E+02 0.15457652018E+02 0.16648819468E+02 0.17889567861E+02 0.19102226156E+02
 0.20195965440E+02 0.21078741222E+02 0.22037828310E+02 0.22331572451E+02 0.22211756684E+02
 0.18031129269E+02 0.17527504827E+02 0.16876520795E+02 0.16135405452E+02 0.15360090054E+02
 0.14598148883E+02 0.13884421726E+02 0.13239685720E+02 0.12672036678E+02 0.12180145610E+02
 0.11757334872E+02 0.11395461023E+02 0.11087842119E+02 0.10830839129E+02 0.10624095155E+02
 0.10469762986E+02 0.10371249097E+02 0.10332040583E+02 0.10355060373E+02 0.10442749249E+02
 0.10597769782E+02 0.10823958466E+02 0.11126997498E+02 0.11514276657E+02 0.11993566211E+02
 0.12570399518E+02 0.13244435276E+02 0.14005480039E+02 0.14830203188E+02 0.15680727876E+02
 0.16506093963E+02 0.17247007830E+02 0.17843417571E+02 0.18243539079E+02 0.18412344311E+02
 0.18337475015E+02 0.15806559330E+02 0.15484241689E+02 0.15066009142E+02 0.14587514815E+02
 0.14083006291E+02 0.13581041314E+02 0.13102020254E+02 0.12657721409E+02 0.12252554162E+02
 0.11885928344E+02 0.11555010577E+02 0.11257186229E+02 0.10991729606E+02 0.10760452242E+02
 0.10567386715E+02 0.10417804280E+02 0.10317001077E+02 0.10269288961E+02 0.10277501206E+02
 0.10343114125E+02 0.10466857757E+02 0.10649507878E+02 0.10892467031E+02 0.11197775576E+02
 0.11567334534E+02 0.12001334899E+02 0.12496127022E+02 0.13041983528E+02 0.13621365861E+02
 0.14208347165E+02 0.14769718833E+02 0.15267985693E+02 0.15665971724E+02 0.15932237848E+02
 0.16046139561E+02 0.16001294687E+02 0.14378618328E+02 0.14178147961E+02 0.13915694688E+02
 0.13612420931E+02 0.13288071411E+02 0.12958577698E+02 0.12634850189E+02 0.12322844722E+02
 0.12024686007E+02 0.11740418243E+02 0.11469866844E+02 0.11214136169E+02 0.10976415929E+02
 0.10761984355E+02 0.10577524148E+02 0.10430044958E+02 0.10325782145E+02 0.10269397587E+02
 0.10263669073E+02 0.10309674846E+02 0.10407317715E+02 0.10555931432E+02 0.10754691829E+02
 0.11002617811E+02 0.11298074256E+02 0.11637843951E+02 0.12015976463E+02 0.12422716641E+02
 0.12843850053E+02 0.13260772568E+02 0.13651490597E+02 0.13992582494E+02 0.14261914501E+02
 0.14441656551E+02 0.14520966514E+02 0.14497691774E+02 0.13487230018E+02 0.13365997362E+02
 0.13204852303E+02 0.13015907645E+02 0.12809769165E+02 0.12594304586E+02 0.12374222203E+02
 0.12151495857E+02 0.11926460864E+02 0.11699242905E+02 0.11471110639E+02 0.11245383365E+02
 0.11027668104E+02 0.10825405268E+02 0.10646904950E+02 0.10500190020E+02 0.10391984102E+02
 0.10327092051E+02 0.10308261185E+02 0.10336447378E+02 0.10411295096E+02 0.10531600677E+02
 0.10695562837E+02 0.10900715332E+02 0.11143554370E+02 0.11418982239E+02 0.11719756740E+02
 0.12036148329E+02 0.12355968929E+02 0.12665066391E+02 0.12948293313E+02 0.13190867687E+02
 0.13379951225E+02 0.13506190395E+02 0.13564917702E+02 0.13556726260E+02 0.12933941073E+02
 0.12863987476E+02 0.12768978867E+02 0.12655690995E+02 0.12529176795E+02 0.12392185598E+02
 0.12245211129E+02 0.12087185365E+02 0.11916660359E+02 0.11733167787E+02 0.11538372977E+02
 0.11336684405E+02 0.11135138754E+02 0.10942605579E+02 0.10768563646E+02 0.10621814484E+02
 0.10509478301E+02 0.10436480819E+02 0.10405550906E+02 0.10417584096E+02 0.10472139356E+02
 0.10567840557E+02 0.10702532009E+02 0.10873153884E+02 0.11075418520E+02 0.11303447546E+02
 0.11549551014E+02 0.11804291768E+02 0.12056898989E+02 0.12296003203E+02 0.12510588855E+02
 0.12691016530E+02 0.12829956641E+02 0.12923090223E+02 0.12969459387E+02 0.12971387260E+02
 0.12583776874E+02 0.12547877610E+02 0.12497849885E+02 0.12437460038E+02 0.12368408247E+02
 0.12290064989E+02 0.12199789670E+02 0.12093850822E+02 0.11968791844E+02 0.11822916525E+02
 0.11657479158E+02 0.11477211402E+02 0.11290005575E+02 0.11105840094E+02 0.10935272759E+02
 0.10787943307E+02 0.10671475865E+02 0.10590988279E+02 0.10549186243E+02 0.10546838801E+02
 0.10583354973E+02 0.10657214353E+02 0.10766114626E+02 0.10906836396E+02 0.11074943758E+02
 0.11264504443E+02 0.11468011891E+02 0.11676629195E+02 0.11880774250E+02 0.12070960222E+02
 0.12238729876E+02 0.12377499093E+02 0.12483155314E+02 0.12554320185E+02 0.12592252592E+02
 0.12600417646E+02 0.12352993409E+02 0.12340899321E+02 0.12323697377E+02 0.12303506104E+02
 0.12279924317E+02 0.12249886443E+02 0.12208138160E+02 0.12148369079E+02 0.12064839636E+02
 0.11954132679E+02 0.11816542398E+02 0.11656661740E+02 0.11482954561E+02 0.11306424542E+02
 0.11138785854E+02 0.10990675591E+02 0.10870374852E+02 0.10783272120E+02 0.10732023461E+02
 0.10717154048E+02 0.10737767937E+02 0.10792085036E+02 0.10877658027E+02 0.10991276527E+02
 0.11128690494E+02 0.11284349322E+02 0.11451347363E+02 0.11621698156E+02 0.11786950699E+02
 0.11939045766E+02 0.12071227343E+02 0.12178803142E+02 0.12259593386E+02 0.12313994060E+02
 0.12344669306E+02 0.12355944903E+02 0.12193305963E+02 0.12198835586E+02 0.12207417431E+02
 0.12220271883E+02 0.12235565496E+02 0.12248279110E+02 0.12250783908E+02 0.12234187689E+02
 0.12190276106E+02 0.12113617387E+02 0.12003245108E+02 0.11863383273E+02 0.11702948602E+02
 0.11533963277E+02 0.11369369883E+02 0.11220902893E+02 0.11097577655E+02 0.11005071919E+02
 0.10945939649E+02 0.10920351760E+02 0.10926974184E+02 0.10963659228E+02 0.11027779010E+02
 0.11116199213E+02 0.11225025150E+02 0.11349323161E+02 0.11483021023E+02 0.11619127100E+02
 0.11750298142E+02 0.11869661975E+02 0.11971705953E+02 0.12053011152E+02 0.12112656917E+02
 0.12152216570E+02 0.12175366249E+02 0.12187193251E+02 0.12077951416E+02 0.12097036125E+02
 0.12126845628E+02 0.12168098079E+02 0.12217882854E+02 0.12269494126E+02 0.12313084512E+02
 0.12337228968E+02 0.12331206359E+02 0.12287494320E+02 0.12203780447E+02 0.12083846594E+02
 0.11937006524E+02 0.11776255455E+02 0.11615717889E+02 0.11468169436E+02 0.11343291115E+02
 0.11246972564E+02 0.11181587542E+02 0.11146884757E+02 0.11141046575E+02 0.11161546657E+02
 0.11205608314E+02 0.11270248579E+02 0.11352036424E+02 0.11446773395E+02 0.11549315497E+02
 0.11653699744E+02 0.11753631166E+02 0.11843255470E+02 0.11918032426E+02 0.11975478624E+02
 0.12015584466E+02 0.12040808786E+02 0.12055664644E+02 0.12065982118E+02 0.11991727674E+02
 0.12021282463E+02 0.12068724931E+02 0.12134481830E+02 0.12214779895E+02 0.12301431309E+02
 0.12382558411E+02 0.12444373270E+02 0.12473797688E+02 0.12461341244E+02 0.12403426187E+02
 0.12303411223E+02 0.12170948054E+02 0.12019864720E+02 0.11865262946E+02 0.11720724730E+02
 0.11596374709E+02 0.11498143711E+02 0.11428130507E+02 0.11385648976E+02 0.11368456956E+02
 0.11373758335E+02 0.11398759488E+02 0.11440757369E+02 0.11496887533E+02 0.11563747185E+02
 0.11637127356E+02 0.11712040961E+02 0.11783128805E+02 0.11845388890E+02 0.11895049733E+02
 0.11930345018E+02 0.11951972154E+02 0.11963115611E+02 0.11969033907E+02 0.11976290091E+02
 0.11925284013E+02 0.11962692162E+02 0.12024441998E+02 0.12110791201E+02 0.12217271740E+02
 0.12334430653E+02 0.12448623911E+02 0.12543999224E+02 0.12605427551E+02 0.12621723039E+02
 0.12588232382E+02 0.12507953693E+02 0.12390787986E+02 0.12251164739E+02 0.12104831683E+02
 0.11965813441E+02 0.11844355064E+02 0.11746204990E+02 0.11673094209E+02 0.11623938779E+02
 0.11596210591E+02 0.11587039033E+02 0.11593816530E+02 0.11614288345E+02 0.11646261833E+02
 0.11687159378E+02 0.11733662705E+02 0.11781654443E+02 0.11826560358E+02 0.11864053828E+02
 0.11890946690E+02 0.11906011729E+02 0.11910496795E+02 0.11908188109E+02 0.11905005823E+02
 0.11908205075E+02 0.11872726740E+02 0.11915705280E+02 0.11988541634E+02 0.12091404175E+02
 0.12219288007E+02 0.12361721099E+02 0.12503623604E+02 0.12627470090E+02 0.12716486527E+02
 0.12758148925E+02 0.12746970322E+02 0.12685663154E+02 0.12584267043E+02 0.12457539949E+02
 0.12321501450E+02 0.12190225655E+02 0.12073746602E+02 0.11977419365E+02 0.11902541560E+02
 0.11847701189E+02 0.11810251927E+02 0.11787462270E+02 0.11777116883E+02 0.11777565014E+02
 0.11787365062E+02 0.11804760496E+02 0.11827245561E+02 0.11851439826E+02 0.11873389398E+02
 0.11889266796E+02 0.11896293950E+02 0.11893621379E+02 0.11882902583E+02 0.11868399708E+02
 0.11856588925E+02 0.11855333407E+02 0.11830996946E+02 0.11877634135E+02 0.11958527847E+02
 0.12073810882E+02 0.12218092890E+02 0.12380142843E+02 0.12543805560E+02 0.12690310131E+02
 0.12801674811E+02 0.12864412505E+02 0.12872447551E+02 0.12828278504E+02 0.12741978597E+02
 0.12628390369E+02 0.12503490119E+02 0.12381092016E+02 0.12270780303E+02 0.12177386928E+02
 0.12101762617E+02 0.12042250316E+02 0.11996227802E+02 0.11961260518E+02 0.11935658317E+02
 0.11918452981E+02 0.11908963742E+02 0.11906197414E+02 0.11908349105E+02 0.11912629923E+02
 0.11915547307E+02 0.11913615107E+02 0.11904315935E+02 0.11887037741E+02 0.11863705869E+02
 0.11838928448E+02 0.11819611215E+02 0.11814105772E+02 0.11799565015E+02 0.11848376093E+02
 0.11934619629E+02 0.12058424466E+02 0.12214150712E+02 0.12390057810E+02 0.12569265338E+02
 0.12732168213E+02 0.12859987856E+02 0.12938615134E+02 0.12961600706E+02 0.12931294188E+02
 0.12857733479E+02 0.12755692121E+02 0.12640928362E+02 0.12526856249E+02 0.12422537282E+02
 0.12332279605E+02 0.12256541584E+02 0.12193502209E+02 0.12140640872E+02 0.12095869030E+02
 0.12058026119E+02 0.12026779665E+02 0.12002114813E+02 0.11983669899E+02 0.11970188640E+02
 0.11959318357E+02 0.11947882898E+02 0.11932608951E+02 0.11911125568E+02 0.11882950082E+02
 0.11850168242E+02 0.11817612526E+02 0.11792485224E+02 0.11783487740E+02 0.11779619342E+02
 0.11829532319E+02 0.11918788108E+02 0.12047523145E+02 0.12209961422E+02 0.12394075107E+02
 0.12582573182E+02 0.12755381143E+02 0.12893277962E+02 0.12981815672E+02 0.13014344102E+02
 0.12993124365E+02 0.12928142363E+02 0.12834065378E+02 0.12726428729E+02 0.12618302234E+02
 0.12518336954E+02 0.12430455391E+02 0.12354846402E+02 0.12289596801E+02 0.12232287946E+02
 0.12181103249E+02 0.12135273783E+02 0.12094919293E+02 0.12060482983E+02 0.12032023555E+02
 0.12008637393E+02 0.11988240991E+02 0.11967842816E+02 0.11944283337E+02 0.11915260831E+02
 0.11880350644E+02 0.11841717372E+02 0.11804315152E+02 0.11775516631E+02 0.11764230545E+02
 0.11772737553E+02 0.11822981135E+02 0.11913204095E+02 0.12043547230E+02 0.12208191824E+02
 0.12395017992E+02 0.12586602796E+02 0.12762721450E+02 0.12904012424E+02 0.12995921418E+02
 0.13031735701E+02 0.13013686921E+02 0.12951737699E+02 0.12860507608E+02 0.12755440380E+02
 0.12649471690E+02 0.12551097855E+02 0.12464099689E+02 0.12388569989E+02 0.12322566059E+02
 0.12263710866E+02 0.12210290376E+02 0.12161679848E+02 0.12118162836E+02 0.12080346051E+02
 0.12048436019E+02 0.12021651124E+02 0.11997999094E+02 0.11974549121E+02 0.11948177147E+02
 0.11916601130E+02 0.11879412085E+02 0.11838797531E+02 0.11799749540E+02 0.11769695861E+02
 0.11757613559E+02 0.11779619342E+02 0.11829532319E+02 0.11918788108E+02 0.12047523145E+02
 0.12209961422E+02 0.12394075107E+02 0.12582573182E+02 0.12755381143E+02 0.12893277962E+02
 0.12981815672E+02 0.13014344102E+02 0.12993124365E+02 0.12928142363E+02 0.12834065378E+02
 0.12726428729E+02 0.12618302234E+02 0.12518336954E+02 0.12430455391E+02 0.12354846402E+02
 0.12289596801E+02 0.12232287946E+02 0.12181103249E+02 0.12135273783E+02 0.12094919293E+02
 0.12060482983E+02 0.12032023555E+02 0.12008637393E+02 0.11988240991E+02 0.11967842816E+02
 0.11944283337E+02 0.11915260831E+02 0.11880350644E+02 0.11841717372E+02 0.11804315152E+02
 0.11775516631E+02 0.11764230545E+02 0.11799565015E+02 0.11848376093E+02 0.11934619629E+02
 0.12058424466E+02 0.12214150712E+02 0.12390057810E+02 0.12569265338E+02 0.12732168213E+02
 0.12859987856E+02 0.12938615134E+02 0.12961600706E+02 0.12931294188E+02 0.12857733479E+02
 0.12755692121E+02 0.12640928362E+02 0.12526856249E+02 0.12422537282E+02 0.12332279605E+02
 0.12256541584E+02 0.12193502209E+02 0.12140640872E+02 0.12095869030E+02 0.12058026119E+02
 0.12026779665E+02 0.12002114813E+02 0.11983669899E+02 0.11970188640E+02 0.11959318357E+02
 0.11947882898E+02 0.11932608951E+02 0.11911125568E+02 0.11882950082E+02 0.11850168242E+02
 0.11817612526E+02 0.11792485224E+02 0.11783487740E+02 0.11830996946E+02 0.11877634135E+02
 0.11958527847E+02 0.12073810882E+02 0.12218092890E+02 0.12380142843E+02 0.12543805560E+02
 0.12690310131E+02 0.12801674811E+02 0.12864412505E+02 0.12872447551E+02 0.12828278504E+02
 0.12741978597E+02 0.12628390369E+02 0.12503490119E+02 0.12381092016E+02 0.12270780303E+02
 0.12177386928E+02 0.12101762617E+02 0.12042250316E+02 0.11996227802E+02 0.11961260518E+02
 0.11935658317E+02 0.11918452981E+02 0.11908963742E+02 0.11906197414E+02 0.11908349105E+02
 0.11912629923E+02 0.11915547307E+02 0.11913615107E+02 0.11904315935E+02 0.11887037741E+02
 0.11863705869E+02 0.11838928448E+02 0.11819611215E+02 0.11814105772E+02 0.11872726740E+02
 0.11915705280E+02 0.11988541634E+02 0.12091404175E+02 0.12219288007E+02 0.12361721099E+02
 0.12503623604E+02 0.12627470090E+02 0.12716486527E+02 0.12758148925E+02 0.12746970322E+02
 0.12685663154E+02 0.12584267043E+02 0.12457539949E+02 0.12321501450E+02 0.12190225655E+02
 0.12073746602E+02 0.11977419365E+02 0.11902541560E+02 0.11847701189E+02 0.11810251927E+02
 0.11787462270E+02 0.11777116883E+02 0.11777565014E+02 0.11787365062E+02 0.11804760496E+02
 0.11827245561E+02 0.11851439826E+02 0.11873389398E+02 0.11889266796E+02 0.11896293950E+02
 0.11893621379E+02 0.11882902583E+02 0.11868399708E+02 0.11856588925E+02 0.11855333407E+02
 0.11925284013E+02 0.11962692162E+02 0.12024441998E+02 0.12110791201E+02 0.12217271740E+02
 0.12334430653E+02 0.12448623911E+02 0.12543999224E+02 0.12605427551E+02 0.12621723039E+02
 0.12588232382E+02 0.12507953693E+02 0.12390787986E+02 0.12251164739E+02 0.12104831683E+02
 0.11965813441E+02 0.11844355064E+02 0.11746204990E+02 0.11673094209E+02 0.11623938779E+02
 0.11596210591E+02 0.11587039033E+02 0.11593816530E+02 0.11614288345E+02 0.11646261833E+02
 0.11687159378E+02 0.11733662705E+02 0.11781654443E+02 0.11826560358E+02 0.11864053828E+02
 0.11890946690E+02 0.11906011729E+02 0.11910496795E+02 0.11908188109E+02 0.11905005823E+02
 0.11908205075E+02 0.11991727674E+02 0.12021282463E+02 0.12068724931E+02 0.12134481830E+02
 0.12214779895E+02 0.12301431309E+02 0.12382558411E+02 0.12444373270E+02 0.12473797688E+02
 0.12461341244E+02 0.12403426187E+02 0.12303411223E+02 0.12170948054E+02 0.12019864720E+02
 0.11865262946E+02 0.11720724730E+02 0.11596374709E+02 0.11498143711E+02 0.11428130507E+02
 0.11385648976E+02 0.11368456956E+02 0.11373758335E+02 0.11398759488E+02 0.11440757369E+02
 0.11496887533E+02 0.11563747185E+02 0.11637127356E+02 0.11712040961E+02 0.11783128805E+02
 0.11845388890E+02 0.11895049733E+02 0.11930345018E+02 0.11951972154E+02 0.11963115611E+02
 0.11969033907E+02 0.11976290091E+02 0.12077951416E+02 0.12097036125E+02 0.12126845628E+02
 0.12168098079E+02 0.12217882854E+02 0.12269494126E+02 0.12313084512E+02 0.12337228968E+02
 0.12331206359E+02 0.12287494320E+02 0.12203780447E+02 0.12083846594E+02 0.11937006524E+02
 0.11776255455E+02 0.11615717889E+02 0.11468169436E+02 0.11343291115E+02 0.11246972564E+02
 0.11181587542E+02 0.11146884757E+02 0.11141046575E+02 0.11161546657E+02 0.11205608314E+02
 0.11270248579E+02 0.11352036424E+02 0.11446773395E+02 0.11549315497E+02 0.11653699744E+02
 0.11753631166E+02 0.11843255470E+02 0.11918032426E+02 0.11975478624E+02 0.12015584466E+02
 0.12040808786E+02 0.12055664644E+02 0.12065982118E+02 0.12193305963E+02 0.12198835586E+02
 0.12207417431E+02 0.12220271883E+02 0.12235565496E+02 0.12248279110E+02 0.12250783908E+02
 0.12234187689E+02 0.12190276106E+02 0.12113617387E+02 0.12003245108E+02 0.11863383273E+02
 0.11702948602E+02 0.11533963277E+02 0.11369369883E+02 0.11220902893E+02 0.11097577655E+02
 0.11005071919E+02 0.10945939649E+02 0.10920351760E+02 0.10926974184E+02 0.10963659228E+02
 0.11027779010E+02 0.11116199213E+02 0.11225025150E+02 0.11349323161E+02 0.11483021023E+02
 0.11619127100E+02 0.11750298142E+02 0.11869661975E+02 0.11971705953E+02 0.12053011152E+02
 0.12112656917E+02 0.12152216570E+02 0.12175366249E+02 0.12187193251E+02 0.12352993409E+02
 0.12340899321E+02 0.12323697377E+02 0.12303506104E+02 0.12279924317E+02 0.12249886443E+02
 0.12208138160E+02 0.12148369079E+02 0.12064839636E+02 0.11954132679E+02 0.11816542398E+02
 0.11656661740E+02 0.11482954561E+02 0.11306424542E+02 0.11138785854E+02 0.10990675591E+02
 0.10870374852E+02 0.10783272120E+02 0.10732023461E+02 0.10717154048E+02 0.10737767937E+02
 0.10792085036E+02 0.10877658027E+02 0.10991276527E+02 0.11128690494E+02 0.11284349322E+02
 0.11451347363E+02 0.11621698156E+02 0.11786950699E+02 0.11939045766E+02 0.12071227343E+02
 0.12178803142E+02 0.12259593386E+02 0.12313994060E+02 0.12344669306E+02 0.12355944903E+02
 0.12583776874E+02 0.12547877610E+02 0.12497849885E+02 0.12437460038E+02 0.12368408247E+02
 0.12290064989E+02 0.12199789670E+02 0.12093850822E+02 0.11968791844E+02 0.11822916525E+02
 0.11657479158E+02 0.11477211402E+02 0.11290005575E+02 0.11105840094E+02 0.10935272759E+02
 0.10787943307E+02 0.10671475865E+02 0.10590988279E+02 0.10549186243E+02 0.10546838801E+02
 0.10583354973E+02 0.10657214353E+02 0.10766114626E+02 0.10906836396E+02 0.11074943758E+02
 0.11264504443E+02 0.11468011891E+02 0.11676629195E+02 0.11880774250E+02 0.12070960222E+02
 0.12238729876E+02 0.12377499093E+02 0.12483155314E+02 0.12554320185E+02 0.12592252592E+02
 0.12600417646E+02 0.12933941073E+02 0.12863987476E+02 0.12768978867E+02 0.12655690995E+02
 0.12529176795E+02 0.12392185598E+02 0.12245211129E+02 0.12087185365E+02 0.11916660359E+02
 0.11733167787E+02 0.11538372977E+02 0.11336684405E+02 0.11135138754E+02 0.10942605579E+02
 0.10768563646E+02 0.10621814484E+02 0.10509478301E+02 0.10436480819E+02 0.10405550906E+02
 0.10417584096E+02 0.10472139356E+02 0.10567840557E+02 0.10702532009E+02 0.10873153884E+02
 0.11075418520E+02 0.11303447546E+02 0.11549551014E+02 0.11804291768E+02 0.12056898989E+02
 0.12296003203E+02 0.12510588855E+02 0.12691016530E+02 0.12829956641E+02 0.12923090223E+02
 0.12969459387E+02 0.12971387260E+02 0.13487230018E+02 0.13365997362E+02 0.13204852303E+02
 0.13015907645E+02 0.12809769165E+02 0.12594304586E+02 0.12374222203E+02 0.12151495857E+02
 0.11926460864E+02 0.11699242905E+02 0.11471110639E+02 0.11245383365E+02 0.11027668104E+02
 0.10825405268E+02 0.10646904950E+02 0.10500190020E+02 0.10391984102E+02 0.10327092051E+02
 0.10308261185E+02 0.10336447378E+02 0.10411295096E+02 0.10531600677E+02 0.10695562837E+02
 0.10900715332E+02 0.11143554370E+02 0.11418982239E+02 0.11719756740E+02 0.12036148329E+02
 0.12355968929E+02 0.12665066391E+02 0.12948293313E+02 0.13190867687E+02 0.13379951225E+02
 0.13506190395E+02 0.13564917702E+02 0.13556726260E+02 0.14378618328E+02 0.14178147961E+02
 0.13915694688E+02 0.13612420931E+02 0.13288071411E+02 0.12958577698E+02 0.12634850189E+02
 0.12322844722E+02 0.12024686007E+02 0.11740418243E+02 0.11469866844E+02 0.11214136169E+02
 0.10976415929E+02 0.10761984355E+02 0.10577524148E+02 0.10430044958E+02 0.10325782145E+02
 0.10269397587E+02 0.10263669073E+02 0.10309674846E+02 0.10407317715E+02 0.10555931432E+02
 0.10754691829E+02 0.11002617811E+02 0.11298074256E+02 0.11637843951E+02 0.12015976463E+02
 0.12422716641E+02 0.12843850053E+02 0.13260772568E+02 0.13651490597E+02 0.13992582494E+02
 0.14261914501E+02 0.14441656551E+02 0.14520966514E+02 0.14497691774E+02 0.15806559330E+02
 0.15484241689E+02 0.15066009142E+02 0.14587514815E+02 0.14083006291E+02 0.13581041314E+02
 0.13102020254E+02 0.12657721409E+02 0.12252554162E+02 0.11885928344E+02 0.11555010577E+02
 0.11257186229E+02 0.10991729606E+02 0.10760452242E+02 0.10567386715E+02 0.10417804280E+02
 0.10317001077E+02 0.10269288961E+02 0.10277501206E+02 0.10343114125E+02 0.10466857757E+02
 0.10649507878E+02 0.10892467031E+02 0.11197775576E+02 0.11567334534E+02 0.12001334899E+02
 0.12496127022E+02 0.13041983528E+02 0.13621365861E+02 0.14208347165E+02 0.14769718833E+02
 0.15267985693E+02 0.15665971724E+02 0.15932237848E+02 0.16046139561E+02 0.16001294687E+02
 0.18031129269E+02 0.17527504827E+02 0.16876520795E+02 0.16135405452E+02 0.15360090054E+02