=========================================
SLURM_JOB_ID = 51706464
SLURM_JOB_NODELIST = lnode32
SLURM_GPUS = 
SLURM_CPUS_ON_NODE = 24
SLURM_JOB_PARTITION = lenovo
SLURM_TASK_PID = 408031
CUDA_VISIBLE_DEVICES = 
==========================================
 running on   24 total cores
 distrk:  each k-point on   24 cores,    1 groups
 distr:  one band on    4 cores,    6 groups
 using from now: INCAR     
 vasp.5.4.4.18Apr17-6-g9f103f2a35 (build Apr 28 2018 00:24:27) complex          
  
 POSCAR found type information on POSCAR  Fe O 
 POSCAR found :  2 types and      30 ions
 scaLAPACK will be used
 LDA part: xc-table for Pade appr. of Perdew
 POSCAR, INCAR and KPOINTS ok, starting setup
 FFT: planning ...
 WAVECAR not read
 entering main loop
       N       E                     dE             d eps       ncg     rms          rms(c)
DAV:   1     0.526254681912E+04    0.52625E+04   -0.19656E+05 11436   0.277E+03
DAV:   2     0.704156911063E+03   -0.45584E+04   -0.41843E+04 11424   0.733E+02
DAV:   3    -0.217096027618E+03   -0.92125E+03   -0.79059E+03 11796   0.299E+02
DAV:   4    -0.293573264157E+03   -0.76477E+02   -0.75492E+02 12924   0.818E+01
DAV:   5    -0.294514522142E+03   -0.94126E+00   -0.93792E+00 12792   0.102E+01    0.809E+01
DAV:   6    -0.235275134072E+03    0.59239E+02   -0.25278E+02 14808   0.811E+01    0.912E+01
DAV:   7    -0.212069975763E+03    0.23205E+02   -0.11405E+02 12228   0.637E+01    0.437E+01
DAV:   8    -0.218323237159E+03   -0.62533E+01   -0.21467E+01 12120   0.173E+01    0.265E+01
DAV:   9    -0.222497159993E+03   -0.41739E+01   -0.82107E+00 12648   0.170E+01    0.270E+01
DAV:  10    -0.222166977622E+03    0.33018E+00   -0.24531E+00 12552   0.691E+00    0.186E+01
DAV:  11    -0.221604785999E+03    0.56219E+00   -0.22704E-01 14280   0.282E+00    0.122E+01
DAV:  12    -0.221402070853E+03    0.20272E+00   -0.19589E-01 15252   0.240E+00    0.842E+00
DAV:  13    -0.221401260359E+03    0.81049E-03   -0.11232E-01 13956   0.225E+00    0.467E+00
DAV:  14    -0.221445892599E+03   -0.44632E-01   -0.15283E-01 14964   0.200E+00    0.181E+00
DAV:  15    -0.221463981929E+03   -0.18089E-01   -0.62608E-02 12720   0.677E-01    0.144E+00
DAV:  16    -0.221458900671E+03    0.50813E-02   -0.90278E-03 14376   0.706E-01    0.381E-01
DAV:  17    -0.221459510950E+03   -0.61028E-03   -0.48210E-03 12468   0.182E-01    0.195E-01
DAV:  18    -0.221459745889E+03   -0.23494E-03   -0.25312E-04 14064   0.833E-02    0.863E-02
DAV:  19    -0.221459802636E+03   -0.56747E-04   -0.10361E-04 13740   0.428E-02    0.174E-02
DAV:  20    -0.221459811190E+03   -0.85541E-05   -0.21607E-05 12444   0.145E-02    0.884E-03
DAV:  21    -0.221459809348E+03    0.18419E-05   -0.23457E-06 12612   0.857E-03    0.113E-02
DAV:  22    -0.221459810431E+03   -0.10824E-05   -0.10644E-06 10800   0.540E-03    0.510E-03
DAV:  23    -0.221459810428E+03    0.23647E-08   -0.29431E-07  9816   0.314E-03
   1 F= -.22145981E+03 E0= -.22145981E+03  d E =0.000000E+00  mag=    42.3381
