 vasp.5.4.4.18Apr17-6-g9f103f2a35 (build Apr 28 2018 00:24:27) complex          
  
 executed on             LinuxIFC date 2021.09.06  03:49:13
 running on   24 total cores
 distrk:  each k-point on   24 cores,    1 groups
 distr:  one band on NCORES_PER_BAND=   4 cores,    6 groups


--------------------------------------------------------------------------------------------------------


 INCAR:
 POTCAR:    PAW_PBE Fe_pv 02Aug2007               
 POTCAR:    PAW_PBE O 08Apr2002                   
 POTCAR:    PAW_PBE Fe_pv 02Aug2007               
   VRHFIN =Fe:  3pd7s1                                                          
   LEXCH  = PE                                                                  
   EATOM  =  2457.4239 eV,  180.6156 Ry                                         
                                                                                
   TITEL  = PAW_PBE Fe_pv 02Aug2007                                             
   LULTRA =        F    use ultrasoft PP ?                                      
   IUNSCR =        1    unscreen: 0-lin 1-nonlin 2-no                           
   RPACOR =    1.750    partial core radius                                     
   POMASS =   55.847; ZVAL   =   14.000    mass and valenz                      
   RCORE  =    2.200    outmost cutoff radius                                   
   RWIGS  =    2.200; RWIGS  =    1.164    wigner-seitz radius (au A)           
   ENMAX  =  293.238; ENMIN  =  219.928 eV                                      
   ICORE  =        3    local potential                                         
   LCOR   =        T    correct aug charges                                     
   LPAW   =        T    paw PP                                                  
   EAUG   =  578.342                                                            
   DEXC   =    0.000                                                            
   RMAX   =    2.249    core radius for proj-oper                               
   RAUG   =    1.300    factor for augmentation sphere                          
   RDEP   =    2.296    radius for radial grids                                 
   RDEPT  =    1.766    core radius for aug-charge                              
                                                                                
   Atomic configuration                                                         
    8 entries                                                                   
     n  l   j            E        occ.                                          
     1  0  0.50     -6993.8440   2.0000                                         
     2  0  0.50      -814.6047   2.0000                                         
     2  1  1.50      -693.3689   6.0000                                         
     3  0  0.50       -89.4732   2.0000                                         
     3  1  1.50       -55.6373   6.0000                                         
     3  2  2.50        -3.8151   7.0000                                         
     4  0  0.50        -4.2551   1.0000                                         
     4  3  2.50        -1.3606   0.0000                                         
   Description                                                                  
     l       E           TYP  RCUT    TYP  RCUT                                 
     1    -55.6372668     23  2.000                                             
     1     -5.4423304     23  2.000                                             
     2     -3.8151096     23  2.200                                             
     2     -5.1756922     23  2.200                                             
     0     -4.2550951     23  2.200                                             
     0     27.2116520     23  2.200                                             
     3     -1.3605826     23  2.200                                             
  local pseudopotential read in
  partial core-charges read in
  partial kinetic energy density read in
  atomic valenz-charges read in
  non local Contribution for L=           1  read in
    real space projection operators read in
  non local Contribution for L=           1  read in
    real space projection operators read in
  non local Contribution for L=           2  read in
    real space projection operators read in
  non local Contribution for L=           2  read in
    real space projection operators read in
  non local Contribution for L=           0  read in
    real space projection operators read in
  non local Contribution for L=           0  read in
    real space projection operators read in
    PAW grid and wavefunctions read in
 
   number of l-projection  operators is LMAX  =           6
   number of lm-projection operators is LMMAX =          18
 
 POTCAR:    PAW_PBE O 08Apr2002                   
   VRHFIN =O: s2p4                                                              
   LEXCH  = PE                                                                  
   EATOM  =   432.3788 eV,   31.7789 Ry                                         
                                                                                
   TITEL  = PAW_PBE O 08Apr2002                                                 
   LULTRA =        F    use ultrasoft PP ?                                      
   IUNSCR =        1    unscreen: 0-lin 1-nonlin 2-no                           
   RPACOR =    1.200    partial core radius                                     
   POMASS =   16.000; ZVAL   =    6.000    mass and valenz                      
   RCORE  =    1.520    outmost cutoff radius                                   
   RWIGS  =    1.550; RWIGS  =    0.820    wigner-seitz radius (au A)           
   ENMAX  =  400.000; ENMIN  =  300.000 eV                                      
   ICORE  =        2    local potential                                         
   LCOR   =        T    correct aug charges                                     
   LPAW   =        T    paw PP                                                  
   EAUG   =  605.392                                                            
   DEXC   =    0.000                                                            
   RMAX   =    1.553    core radius for proj-oper                               
   RAUG   =    1.300    factor for augmentation sphere                          
   RDEP   =    1.550    radius for radial grids                                 
   RDEPT  =    1.329    core radius for aug-charge                              
                                                                                
   Atomic configuration                                                         
    4 entries                                                                   
     n  l   j            E        occ.                                          
     1  0  0.50      -514.6923   2.0000                                         
     2  0  0.50       -23.9615   2.0000                                         
     2  1  0.50        -9.0305   4.0000                                         
     3  2  1.50        -9.5241   0.0000                                         
   Description                                                                  
     l       E           TYP  RCUT    TYP  RCUT                                 
     0    -23.9615318     23  1.200                                             
     0     -9.5240782     23  1.200                                             
     1     -9.0304911     23  1.520                                             
     1      8.1634956     23  1.520                                             
     2     -9.5240782      7  1.500                                             
  local pseudopotential read in
  partial core-charges read in
  partial kinetic energy density read in
  kinetic energy density of atom read in
  atomic valenz-charges read in
  non local Contribution for L=           0  read in
    real space projection operators read in
  non local Contribution for L=           0  read in
    real space projection operators read in
  non local Contribution for L=           1  read in
    real space projection operators read in
  non local Contribution for L=           1  read in
    real space projection operators read in
    PAW grid and wavefunctions read in
 
   number of l-projection  operators is LMAX  =           4
   number of lm-projection operators is LMMAX =           8
 
 Optimization of the real space projectors (new method)

 maximal supplied QI-value         = 17.01
 optimisation between [QCUT,QGAM] = [ 15.82, 31.63] = [ 70.06,280.23] Ry 
 Optimized for a Real-space Cutoff    1.23 Angstroem

   l    n(q)    QCUT    max X(q) W(low)/X(q) W(high)/X(q)  e(spline) 
   1     11    15.817     4.267    0.53E-04    0.29E-03    0.21E-05
   1     11    15.817     5.750    0.77E-04    0.44E-03    0.31E-05
   2     11    15.817    53.656    0.27E-04    0.98E-04    0.37E-06
   2     11    15.817    49.521    0.28E-04    0.10E-03    0.38E-06
   0     12    15.817    31.246    0.23E-04    0.37E-04    0.25E-06
   0     12    15.817    12.201    0.16E-04    0.30E-04    0.21E-06
 Optimization of the real space projectors (new method)

 maximal supplied QI-value         = 24.76
 optimisation between [QCUT,QGAM] = [ 15.84, 31.69] = [ 70.29,281.17] Ry 
 Optimized for a Real-space Cutoff    0.97 Angstroem

   l    n(q)    QCUT    max X(q) W(low)/X(q) W(high)/X(q)  e(spline) 
   0      9    15.843    20.381    0.16E-03    0.12E-03    0.15E-06
   0      9    15.843    15.268    0.17E-03    0.14E-03    0.17E-06
   1      9    15.843     5.964    0.20E-03    0.17E-03    0.12E-06
   1      9    15.843     5.382    0.17E-03    0.15E-03    0.10E-06
  PAW_PBE Fe_pv 02Aug2007               :
 energy of atom  1       EATOM=-2457.4239
 kinetic energy error for atom=    0.0008 (will be added to EATOM!!)
  PAW_PBE O 08Apr2002                   :
 energy of atom  2       EATOM= -432.3788
 kinetic energy error for atom=    0.0023 (will be added to EATOM!!)
 
 
 POSCAR: Fe12 O18                                
  positions in direct lattice
  No initial velocities read in
 exchange correlation table for  LEXCH =        8
   RHO(1)=    0.500       N(1)  =     2000
   RHO(2)=  100.500       N(2)  =     4000
 


--------------------------------------------------------------------------------------------------------


 ion  position               nearest neighbor table
   1  0.000  0.000  0.355-  17 1.94  23 1.94  28 1.94  25 2.12  19 2.12  13 2.12
   2  0.000  0.000  0.645-  16 1.94  22 1.94  29 1.94  26 2.12  20 2.12  14 2.12
   3  0.333  0.667  0.022-  30 1.94  24 1.94  18 1.94  27 2.12  21 2.12  15 2.12
   4  0.667  0.333  0.689-  14 1.94  20 1.94  26 1.94  22 2.12  29 2.12  16 2.12
   5  0.333  0.667  0.311-  13 1.94  19 1.94  25 1.94  23 2.12  28 2.12  17 2.12
   6  0.667  0.333  0.978-  27 1.94  21 1.94  15 1.94  30 2.12  24 2.12  18 2.12
   7  0.000  0.000  0.145-  24 1.94  18 1.94  30 1.94  25 2.12  19 2.12  13 2.12
   8  0.000  0.000  0.855-  21 1.94  15 1.94  27 1.94  26 2.12  20 2.12  14 2.12
   9  0.333  0.667  0.811-  20 1.94  14 1.94  26 1.94  27 2.12  21 2.12  15 2.12
  10  0.333  0.667  0.522-  29 1.94  16 1.94  22 1.94  23 2.12  28 2.12  17 2.12
  11  0.667  0.333  0.478-  28 1.94  17 1.94  23 1.94  22 2.12  29 2.12  16 2.12
  12  0.667  0.333  0.189-  19 1.94  13 1.94  25 1.94  30 2.12  24 2.12  18 2.12
  13  0.306  0.000  0.250-   5 1.94  12 1.94   7 2.12   1 2.12
  14  0.694  0.000  0.750-   4 1.94   9 1.94   8 2.12   2 2.12
  15  0.640  0.667  0.917-   6 1.94   8 1.94   9 2.12   3 2.12
  16  0.973  0.333  0.583-  10 1.94   2 1.94   4 2.12  11 2.12
  17  0.027  0.667  0.417-  11 1.94   1 1.94   5 2.12  10 2.12
  18  0.360  0.333  0.083-   3 1.94   7 1.94  12 2.12   6 2.12
  19  0.000  0.306  0.250-  12 1.94   5 1.94   7 2.12   1 2.12
  20  0.000  0.694  0.750-   9 1.94   4 1.94   8 2.12   2 2.12
  21  0.333  0.973  0.917-   6 1.94   8 1.94   9 2.12   3 2.12
  22  0.667  0.640  0.583-  10 1.94   2 1.94   4 2.12  11 2.12
  23  0.333  0.360  0.417-  11 1.94   1 1.94   5 2.12  10 2.12
  24  0.667  0.027  0.083-   3 1.94   7 1.94  12 2.12   6 2.12
  25  0.694  0.694  0.250-  12 1.94   5 1.94   7 2.12   1 2.12
  26  0.306  0.306  0.750-   9 1.94   4 1.94   8 2.12   2 2.12
  27  0.027  0.360  0.917-   6 1.94   8 1.94   9 2.12   3 2.12
  28  0.640  0.973  0.417-  11 1.94   1 1.94   5 2.12  10 2.12
  29  0.360  0.027  0.583-  10 1.94   2 1.94   4 2.12  11 2.12
  30  0.973  0.640  0.083-   3 1.94   7 1.94  12 2.12   6 2.12
 
  LATTYP: Found a hexagonal cell.
 ALAT       =     5.0350995578
 C/A-ratio  =     2.7324385232
  
  Lattice vectors:
  
 A1 = (   5.0351000000,   0.0000000000,   0.0000000000)
 A2 = (  -2.5175500000,   4.3605240000,   0.0000000000)
 A3 = (   0.0000000000,   0.0000000000,  13.7581000000)


Analysis of symmetry for initial positions (statically):
=====================================================================
 Subroutine PRICEL returns following result:
 
  LATTYP: Found a trigonal (rhomboedric) cell.
 ALAT       =     5.4297801492
 COS(alpha) =     0.5700456062
  
  Lattice vectors:
  
 A1 = (  -2.5175449649,  -1.4535109070,  -4.5860425054)
 A2 = (  -0.0000025175,   2.9070174535,  -4.5860287473)
 A3 = (   2.5175474825,  -1.4535065465,  -4.5860287473)
 
   3 primitive cells build up your supercell.
 

 Routine SETGRP: Setting up the symmetry group for a 
 hexagonal supercell.


 Subroutine GETGRP returns: Found 12 space group operations
 (whereof  6 operations were pure point group operations)
 out of a pool of 24 trial point group operations.


The static configuration has the point symmetry S_6 .
 The point group associated with its full space group is D_3d.


Analysis of symmetry for dynamics (positions and initial velocities):
=====================================================================
 Subroutine PRICEL returns following result:
 
  LATTYP: Found a trigonal (rhomboedric) cell.
 ALAT       =     5.4297801492
 COS(alpha) =     0.5700456062
  
  Lattice vectors:
  
 A1 = (  -2.5175449649,  -1.4535109070,  -4.5860425054)
 A2 = (  -0.0000025175,   2.9070174535,  -4.5860287473)
 A3 = (   2.5175474825,  -1.4535065465,  -4.5860287473)
 
   3 primitive cells build up your supercell.
 

 Routine SETGRP: Setting up the symmetry group for a 
 hexagonal supercell.


 Subroutine GETGRP returns: Found 12 space group operations
 (whereof  6 operations were pure point group operations)
 out of a pool of 24 trial point group operations.


The dynamic configuration has the point symmetry S_6 .
 The point group associated with its full space group is D_3d.


Analysis of structural, dynamic, and magnetic symmetry:
=====================================================================
 Subroutine PRICEL returns following result:
 
  LATTYP: Found a trigonal (rhomboedric) cell.
 ALAT       =     5.4297801492
 COS(alpha) =     0.5700456062
  
  Lattice vectors:
  
 A1 = (  -2.5175449649,  -1.4535109070,  -4.5860425054)
 A2 = (  -0.0000025175,   2.9070174535,  -4.5860287473)
 A3 = (   2.5175474825,  -1.4535065465,  -4.5860287473)
 
   3 primitive cells build up your supercell.
 

 Routine SETGRP: Setting up the symmetry group for a 
 hexagonal supercell.


 Subroutine GETGRP returns: Found 12 space group operations
 (whereof  6 operations were pure point group operations)
 out of a pool of 24 trial point group operations.


The magnetic configuration has the point symmetry S_6 .
 The point group associated with its full space group is D_3d.


 Subroutine INISYM returns: Found 12 space group operations
 (whereof  6 operations are pure point group operations),
 and found     3 'primitive' translations

 
 
 KPOINTS: pymatgen with grid density = 2464 / numb

Automatic generation of k-mesh.
Space group operators:
 irot       det(A)        alpha          n_x          n_y          n_z        tau_x        tau_y        tau_z
    1     1.000000     0.000000     1.000000     0.000000     0.000000     0.000000     0.000000     0.000000
    2    -1.000000     0.000000     1.000000     0.000000     0.000000     0.000000     0.000000     0.000000
    3     1.000000   120.000000     0.000000     0.000000    -1.000000     0.000000     0.000000     0.000000
    4    -1.000000   120.000000     0.000000     0.000000    -1.000000     0.000000     0.000000     0.000000
    5     1.000000   120.000000     0.000000     0.000000     1.000000     0.000000     0.000000     0.000000
    6    -1.000000   120.000000     0.000000     0.000000     1.000000     0.000000     0.000000     0.000000
    7     1.000000   180.000000     1.000000     0.000000     0.000000     0.000001    -0.000000    -0.500000
    8    -1.000000   180.000000     1.000000     0.000000     0.000000     0.000001    -0.000000    -0.500000
    9     1.000000   180.000000     0.500000    -0.866025     0.000000     0.000000     0.000000    -0.500000
   10    -1.000000   180.000000     0.500000    -0.866025     0.000000     0.000000     0.000000    -0.500000
   11     1.000000   180.000000    -0.500000    -0.866025     0.000000     0.000000     0.000000    -0.500000
   12    -1.000000   180.000000    -0.500000    -0.866025     0.000000     0.000000     0.000000    -0.500000
 
 Subroutine IBZKPT returns following result:
 ===========================================
 
 Found     14 irreducible k-points:
 
 Following reciprocal coordinates:
            Coordinates               Weight
  0.000000  0.000000  0.000000      1.000000
  0.166667  0.000000  0.000000      6.000000
  0.333333  0.000000  0.000000      6.000000
  0.500000  0.000000  0.000000      3.000000
  0.166667  0.166667  0.000000      6.000000
  0.333333  0.166667  0.000000     12.000000
  0.333333  0.333333  0.000000      2.000000
  0.000000  0.000000  0.500000      1.000000
  0.166667  0.000000  0.500000      6.000000
  0.333333  0.000000  0.500000      6.000000
  0.500000  0.000000  0.500000      3.000000
  0.166667  0.166667  0.500000      6.000000
  0.333333  0.166667  0.500000     12.000000
  0.333333  0.333333  0.500000      2.000000
 
 Following cartesian coordinates:
            Coordinates               Weight
  0.000000  0.000000  0.000000      1.000000
  0.033101  0.019111  0.000000      6.000000
  0.066202  0.038222  0.000000      6.000000
  0.099303  0.057333  0.000000      3.000000
  0.033101  0.057333  0.000000      6.000000
  0.066202  0.076443  0.000000     12.000000
  0.066202  0.114665  0.000000      2.000000
  0.000000  0.000000  0.036342      1.000000
  0.033101  0.019111  0.036342      6.000000
  0.066202  0.038222  0.036342      6.000000
  0.099303  0.057333  0.036342      3.000000
  0.033101  0.057333  0.036342      6.000000
  0.066202  0.076443  0.036342     12.000000
  0.066202  0.114665  0.036342      2.000000
 
 TETIRR: Found     71 inequivalent tetrahedra from      432


--------------------------------------------------------------------------------------------------------




 Dimension of arrays:
   k-points           NKPTS =     14   k-points in BZ     NKDIM =     14   number of bands    NBANDS=    204
   number of dos      NEDOS =    301   number of ions     NIONS =     30
   non local maximal  LDIM  =      6   non local SUM 2l+1 LMDIM =     18
   total plane-waves  NPLWV = 408240
   max r-space proj   IRMAX =  10675   max aug-charges    IRDMAX=  40222
   dimension x,y,z NGX =    54 NGY =   54 NGZ =  140
   dimension x,y,z NGXF=   108 NGYF=  108 NGZF=  280
   support grid    NGXF=   108 NGYF=  108 NGZF=  280
   ions per type =              12  18
   NGX,Y,Z   is equivalent  to a cutoff of  17.83, 17.83, 16.92 a.u.
   NGXF,Y,Z  is equivalent  to a cutoff of  35.66, 35.66, 33.83 a.u.

 SYSTEM =  unknown system                          
 POSCAR =  Fe12 O18                                

 Startparameter for this run:
   NWRITE =      2    write-flag & timer
   PREC   = accura    normal or accurate (medium, high low for compatibility)
   ISTART =      0    job   : 0-new  1-cont  2-samecut
   ICHARG =      2    charge: 1-file 2-atom 10-const
   ISPIN  =      2    spin polarized calculation?
   LNONCOLLINEAR =      F non collinear calculations
   LSORBIT =      F    spin-orbit coupling
   INIWAV =      1    electr: 0-lowe 1-rand  2-diag
   LASPH  =      F    aspherical Exc in radial PAW
   METAGGA=      F    non-selfconsistent MetaGGA calc.

 Electronic Relaxation 1
   ENCUT  =  960.0 eV  70.56 Ry    8.40 a.u.  12.72 12.72 34.76*2*pi/ulx,y,z
   ENINI  =  960.0     initial cutoff
   ENAUG  =  605.4 eV  augmentation charge cutoff
   NELM   =    100;   NELMIN=  2; NELMDL= -5     # of ELM steps 
   EDIFF  = 0.1E-06   stopping-criterion for ELM
   LREAL  =      T    real-space projection
   NLSPLINE    = F    spline interpolate recip. space projectors
   LCOMPAT=      F    compatible to vasp.4.4
   GGA_COMPAT  = T    GGA compatible to vasp.4.4-vasp.4.6
   LMAXPAW     = -100 max onsite density
   LMAXMIX     =    2 max onsite mixed and CHGCAR
   VOSKOWN=      0    Vosko Wilk Nusair interpolation
   ROPT   =   -0.00025  -0.00025
 Ionic relaxation
   EDIFFG = 0.1E-05   stopping-criterion for IOM
   NSW    =      0    number of steps for IOM
   NBLOCK =      1;   KBLOCK =      1    inner block; outer block 
   IBRION =     -1    ionic relax: 0-MD 1-quasi-New 2-CG
   NFREE  =      0    steps in history (QN), initial steepest desc. (CG)
   ISIF   =      3    stress and relaxation
   IWAVPR =     10    prediction:  0-non 1-charg 2-wave 3-comb
   ISYM   =      2    0-nonsym 1-usesym 2-fastsym
   LCORR  =      T    Harris-Foulkes like correction to forces

   POTIM  = 0.5000    time-step for ionic-motion
   TEIN   =    0.0    initial temperature
   TEBEG  =    0.0;   TEEND  =   0.0 temperature during run
   SMASS  =  -3.00    Nose mass-parameter (am)
   estimated Nose-frequenzy (Omega)   =  0.10E-29 period in steps =****** mass=  -0.579E-27a.u.
   SCALEE = 1.0000    scale energy and forces
   NPACO  =    256;   APACO  = 16.0  distance and # of slots for P.C.
   PSTRESS=    0.0 pullay stress

  Mass of Ions in am
   POMASS =  55.85 16.00
  Ionic Valenz
   ZVAL   =  14.00  6.00
  Atomic Wigner-Seitz radii
   RWIGS  =  -1.00 -1.00
  virtual crystal weights 
   VCA    =   1.00  1.00
   NELECT =     276.0000    total number of electrons
   NUPDOWN=      -1.0000    fix difference up-down

 DOS related values:
   EMIN   =  10.00;   EMAX   =-10.00  energy-range for DOS
   EFERMI =   0.00
   ISMEAR =    -5;   SIGMA  =   0.05  broadening in eV -4-tet -1-fermi 0-gaus

 Electronic relaxation 2 (details)
   IALGO  =     38    algorithm
   LDIAG  =      T    sub-space diagonalisation (order eigenvalues)
   LSUBROT=      F    optimize rotation matrix (better conditioning)
   TURBO    =      0    0=normal 1=particle mesh
   IRESTART =      0    0=no restart 2=restart with 2 vectors
   NREBOOT  =      0    no. of reboots
   NMIN     =      0    reboot dimension
   EREF     =   0.00    reference energy to select bands
   IMIX   =      4    mixing-type and parameters
     AMIX     =   0.40;   BMIX     =  1.00
     AMIX_MAG =   1.60;   BMIX_MAG =  1.00
     AMIN     =   0.10
     WC   =   100.;   INIMIX=   1;  MIXPRE=   1;  MAXMIX= -45

 Intra band minimization:
   WEIMIN = 0.0000     energy-eigenvalue tresh-hold
   EBREAK =  0.12E-09  absolut break condition
   DEPER  =   0.30     relativ break condition  

   TIME   =   0.40     timestep for ELM

  volume/ion in A,a.u.               =      10.07        67.95
  Fermi-wavevector in a.u.,A,eV,Ry     =   1.588581  3.001983 34.335534  2.523591
  Thomas-Fermi vector in A             =   2.687563
 
 Write flags
   LWAVE        =      F    write WAVECAR
   LDOWNSAMPLE  =      F    k-point downsampling of WAVECAR
   LCHARG       =      F    write CHGCAR
   LVTOT        =      F    write LOCPOT, total local potential
   LVHAR        =      F    write LOCPOT, Hartree potential only
   LELF         =      F    write electronic localiz. function (ELF)
   LORBIT       =     11    0 simple, 1 ext, 2 COOP (PROOUT), +10 PAW based schemes


 Dipole corrections
   LMONO  =      F    monopole corrections only (constant potential shift)
   LDIPOL =      F    correct potential (dipole corrections)
   IDIPOL =      0    1-x, 2-y, 3-z, 4-all directions 
   EPSILON=  1.0000000 bulk dielectric constant

 Exchange correlation treatment:
   GGA     =    --    GGA type
   LEXCH   =     8    internal setting for exchange type
   VOSKOWN=      0    Vosko Wilk Nusair interpolation
   LHFCALC =     F    Hartree Fock is set to
   LHFONE  =     F    Hartree Fock one center treatment
   AEXX    =    0.0000 exact exchange contribution

 Linear response parameters
   LEPSILON=     F    determine dielectric tensor
   LRPA    =     F    only Hartree local field effects (RPA)
   LNABLA  =     F    use nabla operator in PAW spheres
   LVEL    =     F    velocity operator in full k-point grid
   LINTERFAST=   F  fast interpolation
   KINTER  =     0    interpolate to denser k-point grid
   CSHIFT  =0.1000    complex shift for real part using Kramers Kronig
   OMEGAMAX=  -1.0    maximum frequency
   DEG_THRESHOLD= 0.2000000E-02 threshold for treating states as degnerate
   RTIME   =   -0.100 relaxation time in fs
  (WPLASMAI=    0.000 imaginary part of plasma frequency in eV, 0.658/RTIME)
   DFIELD  = 0.0000000 0.0000000 0.0000000 field for delta impulse in time
 
 Orbital magnetization related:
   ORBITALMAG=     F  switch on orbital magnetization
   LCHIMAG   =     F  perturbation theory with respect to B field
   DQ        =  0.001000  dq finite difference perturbation B field
   LLRAUG    =     F  two centre corrections for induced B field



--------------------------------------------------------------------------------------------------------


 Static calculation
 charge density and potential will be updated during run
 spin polarized calculation
 Variant of blocked Davidson
 Davidson routine will perform the subspace rotation
 perform sub-space diagonalisation
    after iterative eigenvector-optimisation
 modified Broyden-mixing scheme, WC =      100.0
 initial mixing is a Kerker type mixing with AMIX =  0.4000 and BMIX =      1.0000
 Hartree-type preconditioning will be used
 using additional bands           66
 real space projection scheme for non local part
 use partial core corrections
 calculate Harris-corrections to forces 
   (improved forces if not selfconsistent)
 use gradient corrections 
 use of overlap-Matrix (Vanderbilt PP)
 Fermi weights with tetrahedron method with Bloechl corrections


--------------------------------------------------------------------------------------------------------


  energy-cutoff  :      960.00
  volume of cell :      302.07
      direct lattice vectors                 reciprocal lattice vectors
     5.035100000  0.000000000  0.000000000     0.198605787  0.114665118  0.000000000
    -2.517550000  4.360524000  0.000000000     0.000000000  0.229330236  0.000000000
     0.000000000  0.000000000 13.758100000     0.000000000  0.000000000  0.072684455

  length of vectors
     5.035100000  5.035099558 13.758100000     0.229330216  0.229330236  0.072684455


 
 k-points in units of 2pi/SCALE and weight: pymatgen with grid density = 2464 / numb
   0.00000000  0.00000000  0.00000000       0.014
   0.03310096  0.01911085  0.00000000       0.083
   0.06620193  0.03822171  0.00000000       0.083
   0.09930289  0.05733256  0.00000000       0.042
   0.03310096  0.05733256  0.00000000       0.083
   0.06620193  0.07644341  0.00000000       0.167
   0.06620193  0.11466512  0.00000000       0.028
   0.00000000  0.00000000  0.03634223       0.014
   0.03310096  0.01911085  0.03634223       0.083
   0.06620193  0.03822171  0.03634223       0.083
   0.09930289  0.05733256  0.03634223       0.042
   0.03310096  0.05733256  0.03634223       0.083
   0.06620193  0.07644341  0.03634223       0.167
   0.06620193  0.11466512  0.03634223       0.028
 
 k-points in reciprocal lattice and weights: pymatgen with grid density = 2464 / numb
   0.00000000  0.00000000  0.00000000       0.014
   0.16666667  0.00000000  0.00000000       0.083
   0.33333333  0.00000000  0.00000000       0.083
   0.50000000  0.00000000  0.00000000       0.042
   0.16666667  0.16666667  0.00000000       0.083
   0.33333333  0.16666667  0.00000000       0.167
   0.33333333  0.33333333  0.00000000       0.028
   0.00000000  0.00000000  0.50000000       0.014
   0.16666667  0.00000000  0.50000000       0.083
   0.33333333  0.00000000  0.50000000       0.083
   0.50000000  0.00000000  0.50000000       0.042
   0.16666667  0.16666667  0.50000000       0.083
   0.33333333  0.16666667  0.50000000       0.167
   0.33333333  0.33333333  0.50000000       0.028
 
 position of ions in fractional coordinates (direct lattice) 
   0.00000000  0.00000000  0.35532000
   0.00000000  0.00000000  0.64468000
   0.33333300  0.66666700  0.02198700
   0.66666700  0.33333300  0.68865300
   0.33333300  0.66666700  0.31134700
   0.66666700  0.33333300  0.97801300
   0.00000000  0.00000000  0.14468000
   0.00000000  0.00000000  0.85532000
   0.33333300  0.66666700  0.81134700
   0.33333300  0.66666700  0.52198700
   0.66666700  0.33333300  0.47801300
   0.66666700  0.33333300  0.18865300
   0.30618000  0.00000000  0.25000000
   0.69382000  0.00000000  0.75000000
   0.63951300  0.66666700  0.91666700
   0.97284700  0.33333300  0.58333300
   0.02715300  0.66666700  0.41666700
   0.36048700  0.33333300  0.08333300
   0.00000000  0.30618000  0.25000000
   0.00000000  0.69382000  0.75000000
   0.33333300  0.97284700  0.91666700
   0.66666700  0.63951300  0.58333300
   0.33333300  0.36048700  0.41666700
   0.66666700  0.02715300  0.08333300
   0.69382000  0.69382000  0.25000000
   0.30618000  0.30618000  0.75000000
   0.02715300  0.36048700  0.91666700
   0.63951300  0.97284700  0.41666700
   0.36048700  0.02715300  0.58333300
   0.97284700  0.63951300  0.08333300
 
 position of ions in cartesian coordinates  (Angst):
   0.00000000  0.00000000  4.88852809
   0.00000000  0.00000000  8.86957191
  -0.00000252  2.90701745  0.30249934
   2.51755252  1.45350655  9.47455684
  -0.00000252  2.90701745  4.28354316
   2.51755252  1.45350655 13.45560066
   0.00000000  0.00000000  1.99052191
   0.00000000  0.00000000 11.76757809
  -0.00000252  2.90701745 11.16259316
  -0.00000252  2.90701745  7.18154934
   2.51755252  1.45350655  6.57655066
   2.51755252  1.45350655  2.59550684
   1.54164692  0.00000000  3.43952500
   3.49345308  0.00000000 10.31857500
   1.54164440  2.90701745 12.61159625
   4.05919944  1.45350655  8.02555375
  -1.54164944  2.90701745  5.73254625
   0.97590560  1.45350655  1.14650375
  -0.77082346  1.33510524  3.43952500
  -1.74672654  3.02541876 10.31857500
  -0.77082598  4.24212269 12.61159625
   1.74672906  2.78861178  8.02555375
   0.77082094  1.57191222  5.73254625
   3.28837598  0.11840131  1.14650375
   1.74672654  3.02541876  3.43952500
   0.77082346  1.33510524 10.31857500
  -0.77082598  1.57191222 12.61159625
   0.77082094  4.24212269  5.73254625
   1.74672906  0.11840131  8.02555375
   3.28837598  2.78861178  1.14650375
 


--------------------------------------------------------------------------------------------------------


 k-point  1 :   0.0000 0.0000 0.0000  plane waves:   20367
 k-point  2 :   0.1667 0.0000 0.0000  plane waves:   20392
 k-point  3 :   0.3333 0.0000 0.0000  plane waves:   20422
 k-point  4 :   0.5000 0.0000 0.0000  plane waves:   20386
 k-point  5 :   0.1667 0.1667 0.0000  plane waves:   20419
 k-point  6 :   0.3333 0.1667 0.0000  plane waves:   20416
 k-point  7 :   0.3333 0.3333 0.0000  plane waves:   20367
 k-point  8 :   0.0000 0.0000 0.5000  plane waves:   20446
 k-point  9 :   0.1667 0.0000 0.5000  plane waves:   20440
 k-point 10 :   0.3333 0.0000 0.5000  plane waves:   20386
 k-point 11 :   0.5000 0.0000 0.5000  plane waves:   20416
 k-point 12 :   0.1667 0.1667 0.5000  plane waves:   20416
 k-point 13 :   0.3333 0.1667 0.5000  plane waves:   20394
 k-point 14 :   0.3333 0.3333 0.5000  plane waves:   20322

 maximum and minimum number of plane-waves per node :      5161     5059

 maximum number of plane-waves:     20446
 maximum index in each direction: 
   IXMAX=   12   IYMAX=   12   IZMAX=   34
   IXMIN=  -13   IYMIN=  -13   IZMIN=  -35


 real space projection operators:
  total allocation   :      23061.94 KBytes
  max/ min on nodes  :       5985.38       5550.12


 parallel 3D FFT for wavefunctions:
    minimum data exchange during FFTs selected (reduces bandwidth)
 parallel 3D FFT for charge:
    minimum data exchange during FFTs selected (reduces bandwidth)


 total amount of memory used by VASP MPI-rank0   151316. kBytes
=======================================================================

   base      :      30000. kBytes
   nonlr-proj:      12767. kBytes
   fftplans  :       8134. kBytes
   grid      :      20656. kBytes
   one-center:        248. kBytes
   wavefun   :      79511. kBytes
 
     INWAV:  cpu time    0.0000: real time    0.0001
 Broyden mixing: mesh for mixing (old mesh)
   NGX = 25   NGY = 25   NGZ = 69
  (NGX  =108   NGY  =108   NGZ  =280)
  gives a total of  43125 points

 initial charge density was supplied:
 charge density of overlapping atoms calculated
 number of electron     276.0000000 magnetization      70.8000000
 keeping initial charge density in first step


--------------------------------------------------------------------------------------------------------


 Maximum index for non-local projection operator         2835
 Maximum index for augmentation-charges         2160 (set IRDMAX)


--------------------------------------------------------------------------------------------------------


 First call to EWALD:  gamma=   0.264
 Maximum number of real-space cells 4x 4x 2
 Maximum number of reciprocal cells 2x 2x 5

    FEWALD:  cpu time    0.0019: real time    0.0019


--------------------------------------- Iteration      1(   1)  ---------------------------------------


    POTLOK:  cpu time    0.2126: real time    0.2142
    SETDIJ:  cpu time    0.0227: real time    0.0227
     EDDAV:  cpu time   29.6065: real time   29.6873
 BZINTS: Fermi energy: 34.270915;276.000000 electrons
         Band energy:2245.870770;  BLOECHL correction: -0.151041
       DOS:  cpu time    0.0447: real time    0.0448
    --------------------------------------------
      LOOP:  cpu time   29.8864: real time   29.9690

 eigenvalue-minimisations  : 11436
 total energy-change (2. order) : 0.5262547E+04  (-0.1965611E+05)
 number of electron     276.0000000 magnetization      70.8000000
 augmentation part      276.0000000 magnetization      70.8000000

 Free energy of the ion-electron system (eV)
  ---------------------------------------------------
  alpha Z        PSCENC =      1362.55286497
  Ewald energy   TEWEN  =    -25513.06237826
  -Hartree energ DENC   =    -10371.14386019
  -exchange      EXHF   =         0.00000000
  -V(xc)+E(xc)   XCENC  =      1375.27777495
  PAW double counting   =     30224.59406688   -31333.39571732
  entropy T*S    EENTRO =         0.00000000
  eigenvalues    EBANDS =      2245.87076951
  atomic energy  EATOM  =     37271.85329858
  Solvation  Ediel_sol  =         0.00000000
  ---------------------------------------------------
  free energy    TOTEN  =      5262.54681912 eV

  energy without entropy =     5262.54681912  energy(sigma->0) =     5262.54681912


--------------------------------------------------------------------------------------------------------




--------------------------------------- Iteration      1(   2)  ---------------------------------------


     EDDAV:  cpu time   29.5643: real time   29.6447
 BZINTS: Fermi energy: 12.478973;276.000000 electrons
         Band energy:***********;  BLOECHL correction: -0.042365
       DOS:  cpu time    0.0462: real time    0.0463
    --------------------------------------------
      LOOP:  cpu time   29.6105: real time   29.6910

 eigenvalue-minimisations  : 11424
 total energy-change (2. order) :-0.4558390E+04  (-0.4184315E+04)
 number of electron     276.0000000 magnetization      70.8000000
 augmentation part      276.0000000 magnetization      70.8000000

 Free energy of the ion-electron system (eV)
  ---------------------------------------------------
  alpha Z        PSCENC =      1362.55286497
  Ewald energy   TEWEN  =    -25513.06237826
  -Hartree energ DENC   =    -10371.14386019
  -exchange      EXHF   =         0.00000000
  -V(xc)+E(xc)   XCENC  =      1375.27777495
  PAW double counting   =     30224.59406688   -31333.39571732
  entropy T*S    EENTRO =         0.00000000
  eigenvalues    EBANDS =     -2312.51913855
  atomic energy  EATOM  =     37271.85329858
  Solvation  Ediel_sol  =         0.00000000
  ---------------------------------------------------
  free energy    TOTEN  =       704.15691106 eV

  energy without entropy =      704.15691106  energy(sigma->0) =      704.15691106


--------------------------------------------------------------------------------------------------------




--------------------------------------- Iteration      1(   3)  ---------------------------------------


     EDDAV:  cpu time   30.2708: real time   30.3477
 BZINTS: Fermi energy:  8.810719;276.000000 electrons
         Band energy:***********;  BLOECHL correction:  0.000000
       DOS:  cpu time    0.0073: real time    0.0075
    --------------------------------------------
      LOOP:  cpu time   30.2781: real time   30.3552

 eigenvalue-minimisations  : 11796
 total energy-change (2. order) :-0.9212529E+03  (-0.7905904E+03)
 number of electron     276.0000000 magnetization      70.8000000
 augmentation part      276.0000000 magnetization      70.8000000

 Free energy of the ion-electron system (eV)
  ---------------------------------------------------
  alpha Z        PSCENC =      1362.55286497
  Ewald energy   TEWEN  =    -25513.06237826
  -Hartree energ DENC   =    -10371.14386019
  -exchange      EXHF   =         0.00000000
  -V(xc)+E(xc)   XCENC  =      1375.27777495
  PAW double counting   =     30224.59406688   -31333.39571732
  entropy T*S    EENTRO =         0.00000000
  eigenvalues    EBANDS =     -3233.77207723
  atomic energy  EATOM  =     37271.85329858
  Solvation  Ediel_sol  =         0.00000000
  ---------------------------------------------------
  free energy    TOTEN  =      -217.09602762 eV

  energy without entropy =     -217.09602762  energy(sigma->0) =     -217.09602762


--------------------------------------------------------------------------------------------------------




--------------------------------------- Iteration      1(   4)  ---------------------------------------


     EDDAV:  cpu time   31.5895: real time   31.6713
 BZINTS: Fermi energy:  8.352123;276.000000 electrons
         Band energy:***********;  BLOECHL correction:  0.000000
       DOS:  cpu time    0.0074: real time    0.0074
    --------------------------------------------
      LOOP:  cpu time   31.5969: real time   31.6787

 eigenvalue-minimisations  : 12924
 total energy-change (2. order) :-0.7647724E+02  (-0.7549247E+02)
 number of electron     276.0000000 magnetization      70.8000000
 augmentation part      276.0000000 magnetization      70.8000000

 Free energy of the ion-electron system (eV)
  ---------------------------------------------------
  alpha Z        PSCENC =      1362.55286497
  Ewald energy   TEWEN  =    -25513.06237826
  -Hartree energ DENC   =    -10371.14386019
  -exchange      EXHF   =         0.00000000
  -V(xc)+E(xc)   XCENC  =      1375.27777495
  PAW double counting   =     30224.59406688   -31333.39571732
  entropy T*S    EENTRO =         0.00000000
  eigenvalues    EBANDS =     -3310.24931377
  atomic energy  EATOM  =     37271.85329858
  Solvation  Ediel_sol  =         0.00000000
  ---------------------------------------------------
  free energy    TOTEN  =      -293.57326416 eV

  energy without entropy =     -293.57326416  energy(sigma->0) =     -293.57326416


--------------------------------------------------------------------------------------------------------




--------------------------------------- Iteration      1(   5)  ---------------------------------------


     EDDAV:  cpu time   32.3944: real time   32.4782
 BZINTS: Fermi energy:  8.342557;276.000000 electrons
         Band energy:***********;  BLOECHL correction:  0.000000
       DOS:  cpu time    0.0073: real time    0.0073
    CHARGE:  cpu time    1.3065: real time    1.3097
    MIXING:  cpu time    0.0045: real time    0.0046
    --------------------------------------------
      LOOP:  cpu time   33.7127: real time   33.7998

 eigenvalue-minimisations  : 12792
 total energy-change (2. order) :-0.9412580E+00  (-0.9379192E+00)
 number of electron     275.9999985 magnetization      67.8179405
 augmentation part      108.0134096 magnetization      47.0438527

 Broyden mixing:
  rms(total) = 0.80925E+01    rms(broyden)= 0.80925E+01
  rms(prec ) = 0.88385E+01
  weight for this iteration     100.00

 Free energy of the ion-electron system (eV)
  ---------------------------------------------------
  alpha Z        PSCENC =      1362.55286497
  Ewald energy   TEWEN  =    -25513.06237826
  -Hartree energ DENC   =    -10371.14386019
  -exchange      EXHF   =         0.00000000
  -V(xc)+E(xc)   XCENC  =      1375.27777495
  PAW double counting   =     30224.59406688   -31333.39571732
  entropy T*S    EENTRO =         0.00000000
  eigenvalues    EBANDS =     -3311.19057175
  atomic energy  EATOM  =     37271.85329858
  Solvation  Ediel_sol  =         0.00000000
  ---------------------------------------------------
  free energy    TOTEN  =      -294.51452214 eV

  energy without entropy =     -294.51452214  energy(sigma->0) =     -294.51452214


--------------------------------------------------------------------------------------------------------




--------------------------------------- Iteration      1(   6)  ---------------------------------------


    POTLOK:  cpu time    0.2048: real time    0.2064
    SETDIJ:  cpu time    0.0194: real time    0.0195
     EDDAV:  cpu time   36.1325: real time   36.2238
 BZINTS: Fermi energy:  5.535051;276.000000 electrons
         Band energy:***********;  BLOECHL correction: -0.055003
       DOS:  cpu time    0.0498: real time    0.0500
    CHARGE:  cpu time    1.3414: real time    1.3449
    MIXING:  cpu time    0.0048: real time    0.0048
    --------------------------------------------
      LOOP:  cpu time   37.7528: real time   37.8494

 eigenvalue-minimisations  : 14808
 total energy-change (2. order) : 0.5923939E+02  (-0.2527811E+02)
 number of electron     275.9999991 magnetization      62.9811149
 augmentation part      120.7024608 magnetization      54.4084372

 Broyden mixing:
  rms(total) = 0.91183E+01    rms(broyden)= 0.91183E+01
  rms(prec ) = 0.97668E+01
  weight for this iteration     100.00

 eigenvalues of (default mixing * dielectric matrix)
  average eigenvalue GAMMA=   0.3187
  0.3187

 Free energy of the ion-electron system (eV)
  ---------------------------------------------------
  alpha Z        PSCENC =      1362.55286497
  Ewald energy   TEWEN  =    -25513.06237826
  -Hartree energ DENC   =     -9965.67424116
  -exchange      EXHF   =         0.00000000
  -V(xc)+E(xc)   XCENC  =      1376.63567434
  PAW double counting   =     31435.30776009   -32502.20607952
  entropy T*S    EENTRO =         0.00000000
  eigenvalues    EBANDS =     -3700.68203311
  atomic energy  EATOM  =     37271.85329858
  Solvation  Ediel_sol  =         0.00000000
  ---------------------------------------------------
  free energy    TOTEN  =      -235.27513407 eV

  energy without entropy =     -235.27513407  energy(sigma->0) =     -235.27513407


--------------------------------------------------------------------------------------------------------




--------------------------------------- Iteration      1(   7)  ---------------------------------------


    POTLOK:  cpu time    0.2017: real time    0.2036
    SETDIJ:  cpu time    0.0195: real time    0.0196
     EDDAV:  cpu time   31.3316: real time   31.4107
 BZINTS: Fermi energy:  7.078705;276.000000 electrons
         Band energy:***********;  BLOECHL correction: -0.036397
       DOS:  cpu time    0.0470: real time    0.0473
    CHARGE:  cpu time    1.3247: real time    1.3280
    MIXING:  cpu time    0.0046: real time    0.0046
    --------------------------------------------
      LOOP:  cpu time   32.9292: real time   33.0138

 eigenvalue-minimisations  : 12228
 total energy-change (2. order) : 0.2320516E+02  (-0.1140499E+02)
 number of electron     275.9999987 magnetization      58.7866991
 augmentation part      109.3440114 magnetization      40.3331379

 Broyden mixing:
  rms(total) = 0.43697E+01    rms(broyden)= 0.43697E+01
  rms(prec ) = 0.45294E+01
  weight for this iteration     100.00

 eigenvalues of (default mixing * dielectric matrix)
  average eigenvalue GAMMA=   0.6787
  1.0269  0.3304

 Free energy of the ion-electron system (eV)
  ---------------------------------------------------
  alpha Z        PSCENC =      1362.55286497
  Ewald energy   TEWEN  =    -25513.06237826
  -Hartree energ DENC   =    -10207.45648520
  -exchange      EXHF   =         0.00000000
  -V(xc)+E(xc)   XCENC  =      1372.38493112
  PAW double counting   =     32867.37528870   -33995.81024405
  entropy T*S    EENTRO =         0.00000000
  eigenvalues    EBANDS =     -3369.90725162
  atomic energy  EATOM  =     37271.85329858
  Solvation  Ediel_sol  =         0.00000000
  ---------------------------------------------------
  free energy    TOTEN  =      -212.06997576 eV

  energy without entropy =     -212.06997576  energy(sigma->0) =     -212.06997576


--------------------------------------------------------------------------------------------------------




--------------------------------------- Iteration      1(   8)  ---------------------------------------


    POTLOK:  cpu time    0.2028: real time    0.2052
    SETDIJ:  cpu time    0.0194: real time    0.0195
     EDDAV:  cpu time   29.9255: real time   30.0012
 BZINTS: Fermi energy:  6.445185;276.000000 electrons
         Band energy:***********;  BLOECHL correction: -0.034176
       DOS:  cpu time    0.0506: real time    0.0508
    CHARGE:  cpu time    1.3248: real time    1.3281
    MIXING:  cpu time    0.0048: real time    0.0048
    --------------------------------------------
      LOOP:  cpu time   31.5279: real time   31.6094

 eigenvalue-minimisations  : 12120
 total energy-change (2. order) :-0.6253261E+01  (-0.2146662E+01)
 number of electron     275.9999987 magnetization      51.9560893
 augmentation part      111.2654418 magnetization      35.0349230

 Broyden mixing:
  rms(total) = 0.26532E+01    rms(broyden)= 0.26532E+01
  rms(prec ) = 0.27135E+01
  weight for this iteration     100.00

 eigenvalues of (default mixing * dielectric matrix)
  average eigenvalue GAMMA=   1.0714
  2.2511  0.5793  0.3837

 Free energy of the ion-electron system (eV)
  ---------------------------------------------------
  alpha Z        PSCENC =      1362.55286497
  Ewald energy   TEWEN  =    -25513.06237826
  -Hartree energ DENC   =    -10072.23673777
  -exchange      EXHF   =         0.00000000
  -V(xc)+E(xc)   XCENC  =      1366.36797310
  PAW double counting   =     34224.22468231   -35364.38515811
  entropy T*S    EENTRO =         0.00000000
  eigenvalues    EBANDS =     -3493.63778198
  atomic energy  EATOM  =     37271.85329858
  Solvation  Ediel_sol  =         0.00000000
  ---------------------------------------------------
  free energy    TOTEN  =      -218.32323716 eV

  energy without entropy =     -218.32323716  energy(sigma->0) =     -218.32323716


--------------------------------------------------------------------------------------------------------




--------------------------------------- Iteration      1(   9)  ---------------------------------------


    POTLOK:  cpu time    0.2034: real time    0.2060
    SETDIJ:  cpu time    0.0196: real time    0.0196
     EDDAV:  cpu time   31.9049: real time   31.9858
 BZINTS: Fermi energy:  5.881827;276.000000 electrons
         Band energy:***********;  BLOECHL correction: -0.038288
       DOS:  cpu time    0.0504: real time    0.0505
    CHARGE:  cpu time    1.3297: real time    1.3330
    MIXING:  cpu time    0.0048: real time    0.0048
    --------------------------------------------
      LOOP:  cpu time   33.5128: real time   33.5998

 eigenvalue-minimisations  : 12648
 total energy-change (2. order) :-0.4173923E+01  (-0.8210720E+00)
 number of electron     275.9999989 magnetization      50.9248115
 augmentation part      114.1226049 magnetization      37.7895813

 Broyden mixing:
  rms(total) = 0.27033E+01    rms(broyden)= 0.27033E+01
  rms(prec ) = 0.28324E+01
  weight for this iteration     100.00

 eigenvalues of (default mixing * dielectric matrix)
  average eigenvalue GAMMA=   1.1014
  2.8498  0.8033  0.3763  0.3763

 Free energy of the ion-electron system (eV)
  ---------------------------------------------------
  alpha Z        PSCENC =      1362.55286497
  Ewald energy   TEWEN  =    -25513.06237826
  -Hartree energ DENC   =     -9933.74551939
  -exchange      EXHF   =         0.00000000
  -V(xc)+E(xc)   XCENC  =      1362.37236304
  PAW double counting   =     36505.62243948   -37674.58068455
  entropy T*S    EENTRO =         0.00000000
  eigenvalues    EBANDS =     -3603.50954388
  atomic energy  EATOM  =     37271.85329858
  Solvation  Ediel_sol  =         0.00000000
  ---------------------------------------------------
  free energy    TOTEN  =      -222.49715999 eV

  energy without entropy =     -222.49715999  energy(sigma->0) =     -222.49715999


--------------------------------------------------------------------------------------------------------




--------------------------------------- Iteration      1(  10)  ---------------------------------------


    POTLOK:  cpu time    0.2028: real time    0.2044
    SETDIJ:  cpu time    0.0194: real time    0.0194
     EDDAV:  cpu time   31.7205: real time   31.8007
 BZINTS: Fermi energy:  5.958859;276.000000 electrons
         Band energy:***********;  BLOECHL correction: -0.037090
       DOS:  cpu time    0.0495: real time    0.0496
    CHARGE:  cpu time    1.3309: real time    1.3342
    MIXING:  cpu time    0.0050: real time    0.0051
    --------------------------------------------
      LOOP:  cpu time   33.3281: real time   33.4134

 eigenvalue-minimisations  : 12552
 total energy-change (2. order) : 0.3301824E+00  (-0.2453135E+00)
 number of electron     275.9999989 magnetization      50.6210781
 augmentation part      113.4150509 magnetization      37.3069535

 Broyden mixing:
  rms(total) = 0.18576E+01    rms(broyden)= 0.18576E+01
  rms(prec ) = 0.19681E+01
  weight for this iteration     100.00

 eigenvalues of (default mixing * dielectric matrix)
  average eigenvalue GAMMA=   1.0179
  2.6175  0.3742  0.7702  0.6639  0.6639

 Free energy of the ion-electron system (eV)
  ---------------------------------------------------
  alpha Z        PSCENC =      1362.55286497
  Ewald energy   TEWEN  =    -25513.06237826
  -Hartree energ DENC   =     -9949.20440822
  -exchange      EXHF   =         0.00000000
  -V(xc)+E(xc)   XCENC  =      1360.92163851
  PAW double counting   =     36544.37639790   -37716.71726571
  entropy T*S    EENTRO =         0.00000000
  eigenvalues    EBANDS =     -3582.88712540
  atomic energy  EATOM  =     37271.85329858
  Solvation  Ediel_sol  =         0.00000000
  ---------------------------------------------------
  free energy    TOTEN  =      -222.16697762 eV

  energy without entropy =     -222.16697762  energy(sigma->0) =     -222.16697762


--------------------------------------------------------------------------------------------------------




--------------------------------------- Iteration      1(  11)  ---------------------------------------


    POTLOK:  cpu time    0.2028: real time    0.2051
    SETDIJ:  cpu time    0.0196: real time    0.0197
     EDDAV:  cpu time   34.0946: real time   34.1812
 BZINTS: Fermi energy:  6.019897;276.000000 electrons
         Band energy:***********;  BLOECHL correction: -0.033974
       DOS:  cpu time    0.0484: real time    0.0485
    CHARGE:  cpu time    1.3348: real time    1.3381
    MIXING:  cpu time    0.0053: real time    0.0053
    --------------------------------------------
      LOOP:  cpu time   35.7055: real time   35.7979

 eigenvalue-minimisations  : 14280
 total energy-change (2. order) : 0.5621916E+00  (-0.2270396E-01)
 number of electron     275.9999988 magnetization      49.3133306
 augmentation part      112.9970517 magnetization      35.6154008

 Broyden mixing:
  rms(total) = 0.12176E+01    rms(broyden)= 0.12176E+01
  rms(prec ) = 0.12908E+01
  weight for this iteration     100.00

 eigenvalues of (default mixing * dielectric matrix)
  average eigenvalue GAMMA=   1.0450
  2.5823  0.9708  0.9708  0.3793  0.8000  0.5670

 Free energy of the ion-electron system (eV)
  ---------------------------------------------------
  alpha Z        PSCENC =      1362.55286497
  Ewald energy   TEWEN  =    -25513.06237826
  -Hartree energ DENC   =     -9960.28954906
  -exchange      EXHF   =         0.00000000
  -V(xc)+E(xc)   XCENC  =      1360.25041044
  PAW double counting   =     36375.55578365   -37545.89995846
  entropy T*S    EENTRO =         0.00000000
  eigenvalues    EBANDS =     -3572.56525786
  atomic energy  EATOM  =     37271.85329858
  Solvation  Ediel_sol  =         0.00000000
  ---------------------------------------------------
  free energy    TOTEN  =      -221.60478600 eV

  energy without entropy =     -221.60478600  energy(sigma->0) =     -221.60478600


--------------------------------------------------------------------------------------------------------




--------------------------------------- Iteration      1(  12)  ---------------------------------------


    POTLOK:  cpu time    0.2038: real time    0.2054
    SETDIJ:  cpu time    0.0196: real time    0.0196
     EDDAV:  cpu time   36.9617: real time   37.0552
 BZINTS: Fermi energy:  6.079519;276.000000 electrons
         Band energy:***********;  BLOECHL correction: -0.033291
       DOS:  cpu time    0.0520: real time    0.0521
    CHARGE:  cpu time    1.3320: real time    1.3354
    MIXING:  cpu time    0.0053: real time    0.0053
    --------------------------------------------
      LOOP:  cpu time   38.5744: real time   38.6731

 eigenvalue-minimisations  : 15252
 total energy-change (2. order) : 0.2027151E+00  (-0.1958871E-01)
 number of electron     275.9999988 magnetization      46.8802502
 augmentation part      112.6767013 magnetization      33.0793738

 Broyden mixing:
  rms(total) = 0.84214E+00    rms(broyden)= 0.84214E+00
  rms(prec ) = 0.88303E+00
  weight for this iteration     100.00

 eigenvalues of (default mixing * dielectric matrix)
  average eigenvalue GAMMA=   1.0971
  2.1443  1.6558  1.4775  0.3779  0.7518  0.6362  0.6362

 Free energy of the ion-electron system (eV)
  ---------------------------------------------------
  alpha Z        PSCENC =      1362.55286497
  Ewald energy   TEWEN  =    -25513.06237826
  -Hartree energ DENC   =     -9973.25504619
  -exchange      EXHF   =         0.00000000
  -V(xc)+E(xc)   XCENC  =      1359.60342536
  PAW double counting   =     36260.60654247   -37429.89672263
  entropy T*S    EENTRO =         0.00000000
  eigenvalues    EBANDS =     -3559.80405515
  atomic energy  EATOM  =     37271.85329858
  Solvation  Ediel_sol  =         0.00000000
  ---------------------------------------------------
  free energy    TOTEN  =      -221.40207085 eV

  energy without entropy =     -221.40207085  energy(sigma->0) =     -221.40207085


--------------------------------------------------------------------------------------------------------




--------------------------------------- Iteration      1(  13)  ---------------------------------------


    POTLOK:  cpu time    0.2018: real time    0.2068
    SETDIJ:  cpu time    0.0193: real time    0.0193
     EDDAV:  cpu time   34.6278: real time   34.7268
 BZINTS: Fermi energy:  6.138784;276.000000 electrons
         Band energy:***********;  BLOECHL correction: -0.034416
       DOS:  cpu time    0.0509: real time    0.0510
    CHARGE:  cpu time    1.3399: real time    1.3432
    MIXING:  cpu time    0.0054: real time    0.0054
    --------------------------------------------
      LOOP:  cpu time   36.2452: real time   36.3526

 eigenvalue-minimisations  : 13956
 total energy-change (2. order) : 0.8104943E-03  (-0.1123162E-01)
 number of electron     275.9999988 magnetization      43.9908162
 augmentation part      112.4069755 magnetization      30.4370523

 Broyden mixing:
  rms(total) = 0.46675E+00    rms(broyden)= 0.46675E+00
  rms(prec ) = 0.48998E+00
  weight for this iteration     100.00

 eigenvalues of (default mixing * dielectric matrix)
  average eigenvalue GAMMA=   1.3932
  3.4302  3.4302  0.3782  0.9285  0.9285  0.7249  0.7249  0.5999

 Free energy of the ion-electron system (eV)
  ---------------------------------------------------
  alpha Z        PSCENC =      1362.55286497
  Ewald energy   TEWEN  =    -25513.06237826
  -Hartree energ DENC   =     -9991.20128336
  -exchange      EXHF   =         0.00000000
  -V(xc)+E(xc)   XCENC  =      1358.78332220
  PAW double counting   =     36032.89706170   -37199.15888648
  entropy T*S    EENTRO =         0.00000000
  eigenvalues    EBANDS =     -3544.06525971
  atomic energy  EATOM  =     37271.85329858
  Solvation  Ediel_sol  =         0.00000000
  ---------------------------------------------------
  free energy    TOTEN  =      -221.40126036 eV

  energy without entropy =     -221.40126036  energy(sigma->0) =     -221.40126036


--------------------------------------------------------------------------------------------------------




--------------------------------------- Iteration      1(  14)  ---------------------------------------


    POTLOK:  cpu time    0.2017: real time    0.2042
    SETDIJ:  cpu time    0.0191: real time    0.0193
     EDDAV:  cpu time   35.4106: real time   35.5006
 BZINTS: Fermi energy:  6.171079;276.000000 electrons
         Band energy:***********;  BLOECHL correction: -0.032767
       DOS:  cpu time    0.0507: real time    0.0508
    CHARGE:  cpu time    1.3232: real time    1.3265
    MIXING:  cpu time    0.0058: real time    0.0058
    --------------------------------------------
      LOOP:  cpu time   37.0111: real time   37.1072

 eigenvalue-minimisations  : 14964
 total energy-change (2. order) :-0.4463224E-01  (-0.1528282E-01)
 number of electron     275.9999988 magnetization      43.0765890
 augmentation part      112.2235250 magnetization      29.9069901

 Broyden mixing:
  rms(total) = 0.18114E+00    rms(broyden)= 0.18114E+00
  rms(prec ) = 0.18874E+00
  weight for this iteration     100.00

 eigenvalues of (default mixing * dielectric matrix)
  average eigenvalue GAMMA=   1.5048
  5.3537  2.7812  1.2173  0.3782  0.8399  0.8399  0.8844  0.6245  0.6245

 Free energy of the ion-electron system (eV)
  ---------------------------------------------------
  alpha Z        PSCENC =      1362.55286497
  Ewald energy   TEWEN  =    -25513.06237826
  -Hartree energ DENC   =    -10003.84596549
  -exchange      EXHF   =         0.00000000
  -V(xc)+E(xc)   XCENC  =      1357.69402863
  PAW double counting   =     35832.88952100   -36996.12597653
  entropy T*S    EENTRO =         0.00000000
  eigenvalues    EBANDS =     -3533.40128550
  atomic energy  EATOM  =     37271.85329858
  Solvation  Ediel_sol  =         0.00000000
  ---------------------------------------------------
  free energy    TOTEN  =      -221.44589260 eV

  energy without entropy =     -221.44589260  energy(sigma->0) =     -221.44589260


--------------------------------------------------------------------------------------------------------




--------------------------------------- Iteration      1(  15)  ---------------------------------------


    POTLOK:  cpu time    0.2025: real time    0.2055
    SETDIJ:  cpu time    0.0197: real time    0.0197
     EDDAV:  cpu time   32.0185: real time   32.0995
 BZINTS: Fermi energy:  6.157126;276.000000 electrons
         Band energy:***********;  BLOECHL correction: -0.032952
       DOS:  cpu time    0.0482: real time    0.0484
    CHARGE:  cpu time    1.3202: real time    1.3235
    MIXING:  cpu time    0.0060: real time    0.0060
    --------------------------------------------
      LOOP:  cpu time   33.6152: real time   33.7026

 eigenvalue-minimisations  : 12720
 total energy-change (2. order) :-0.1808933E-01  (-0.6260795E-02)
 number of electron     275.9999988 magnetization      42.6380298
 augmentation part      112.2748193 magnetization      29.6429890

 Broyden mixing:
  rms(total) = 0.14383E+00    rms(broyden)= 0.14383E+00
  rms(prec ) = 0.15233E+00
  weight for this iteration     100.00

 eigenvalues of (default mixing * dielectric matrix)
  average eigenvalue GAMMA=   1.5469
  6.1300  2.8513  1.3581  1.0694  0.3782  0.8497  0.8497  0.6935  0.6935  0.5955

 Free energy of the ion-electron system (eV)
  ---------------------------------------------------
  alpha Z        PSCENC =      1362.55286497
  Ewald energy   TEWEN  =    -25513.06237826
  -Hartree energ DENC   =    -10002.57008143
  -exchange      EXHF   =         0.00000000
  -V(xc)+E(xc)   XCENC  =      1357.20218986
  PAW double counting   =     35819.17080623   -36982.03295415
  entropy T*S    EENTRO =         0.00000000
  eigenvalues    EBANDS =     -3534.57772774
  atomic energy  EATOM  =     37271.85329858
  Solvation  Ediel_sol  =         0.00000000
  ---------------------------------------------------
  free energy    TOTEN  =      -221.46398193 eV

  energy without entropy =     -221.46398193  energy(sigma->0) =     -221.46398193


--------------------------------------------------------------------------------------------------------




--------------------------------------- Iteration      1(  16)  ---------------------------------------


    POTLOK:  cpu time    0.2007: real time    0.2065
    SETDIJ:  cpu time    0.0193: real time    0.0193
     EDDAV:  cpu time   34.8060: real time   34.8940
 BZINTS: Fermi energy:  6.178348;276.000000 electrons
         Band energy:***********;  BLOECHL correction: -0.032836
       DOS:  cpu time    0.0481: real time    0.0482
    CHARGE:  cpu time    1.2667: real time    1.2700
    MIXING:  cpu time    0.0060: real time    0.0060
    --------------------------------------------
      LOOP:  cpu time   36.3468: real time   36.4441

 eigenvalue-minimisations  : 14376
 total energy-change (2. order) : 0.5081257E-02  (-0.9027821E-03)
 number of electron     275.9999988 magnetization      42.4966266
 augmentation part      112.1844593 magnetization      29.5022852

 Broyden mixing:
  rms(total) = 0.38093E-01    rms(broyden)= 0.38093E-01
  rms(prec ) = 0.39850E-01
  weight for this iteration     100.00

 eigenvalues of (default mixing * dielectric matrix)
  average eigenvalue GAMMA=   1.5374
  6.3153  2.7837  1.3184  1.3184  1.1157  0.3782  0.8098  0.8098  0.7268  0.7268
  0.6089

 Free energy of the ion-electron system (eV)
  ---------------------------------------------------
  alpha Z        PSCENC =      1362.55286497
  Ewald energy   TEWEN  =    -25513.06237826
  -Hartree energ DENC   =    -10007.20696534
  -exchange      EXHF   =         0.00000000
  -V(xc)+E(xc)   XCENC  =      1357.09037185
  PAW double counting   =     35777.12709286   -36939.88749746
  entropy T*S    EENTRO =         0.00000000
  eigenvalues    EBANDS =     -3529.92568787
  atomic energy  EATOM  =     37271.85329858
  Solvation  Ediel_sol  =         0.00000000
  ---------------------------------------------------
  free energy    TOTEN  =      -221.45890067 eV

  energy without entropy =     -221.45890067  energy(sigma->0) =     -221.45890067


--------------------------------------------------------------------------------------------------------




--------------------------------------- Iteration      1(  17)  ---------------------------------------


    POTLOK:  cpu time    0.1964: real time    0.1985
    SETDIJ:  cpu time    0.0194: real time    0.0194
     EDDAV:  cpu time   31.0553: real time   31.1337
 BZINTS: Fermi energy:  6.179549;276.000000 electrons
         Band energy:***********;  BLOECHL correction: -0.032782
       DOS:  cpu time    0.0497: real time    0.0499
    CHARGE:  cpu time    1.3264: real time    1.3297
    MIXING:  cpu time    0.0064: real time    0.0064
    --------------------------------------------
      LOOP:  cpu time   32.6536: real time   32.7376

 eigenvalue-minimisations  : 12468
 total energy-change (2. order) :-0.6102782E-03  (-0.4821034E-03)
 number of electron     275.9999988 magnetization      42.3972588
 augmentation part      112.1792443 magnetization      29.4162373

 Broyden mixing:
  rms(total) = 0.19520E-01    rms(broyden)= 0.19520E-01
  rms(prec ) = 0.20126E-01
  weight for this iteration     100.00

 eigenvalues of (default mixing * dielectric matrix)
  average eigenvalue GAMMA=   1.5617
  6.5222  2.7668  2.4507  1.0714  1.0714  0.3782  0.8908  0.8908  0.7205  0.7205
  0.6042  0.6531

 Free energy of the ion-electron system (eV)
  ---------------------------------------------------
  alpha Z        PSCENC =      1362.55286497
  Ewald energy   TEWEN  =    -25513.06237826
  -Hartree energ DENC   =    -10006.92844784
  -exchange      EXHF   =         0.00000000
  -V(xc)+E(xc)   XCENC  =      1357.02169184
  PAW double counting   =     35796.90616730   -36960.22733055
  entropy T*S    EENTRO =         0.00000000
  eigenvalues    EBANDS =     -3529.57537699
  atomic energy  EATOM  =     37271.85329858
  Solvation  Ediel_sol  =         0.00000000
  ---------------------------------------------------
  free energy    TOTEN  =      -221.45951095 eV

  energy without entropy =     -221.45951095  energy(sigma->0) =     -221.45951095


--------------------------------------------------------------------------------------------------------




--------------------------------------- Iteration      1(  18)  ---------------------------------------


    POTLOK:  cpu time    0.2095: real time    0.2119
    SETDIJ:  cpu time    0.0190: real time    0.0192
     EDDAV:  cpu time   34.8467: real time   34.9347
 BZINTS: Fermi energy:  6.180044;276.000000 electrons
         Band energy:***********;  BLOECHL correction: -0.032905
       DOS:  cpu time    0.0494: real time    0.0495
    CHARGE:  cpu time    1.3328: real time    1.3363
    MIXING:  cpu time    0.0064: real time    0.0064
    --------------------------------------------
      LOOP:  cpu time   36.4639: real time   36.5580

 eigenvalue-minimisations  : 14064
 total energy-change (2. order) :-0.2349396E-03  (-0.2531206E-04)
 number of electron     275.9999988 magnetization      42.3456122
 augmentation part      112.1742039 magnetization      29.3825177

 Broyden mixing:
  rms(total) = 0.86261E-02    rms(broyden)= 0.86260E-02
  rms(prec ) = 0.89749E-02
  weight for this iteration     100.00

 eigenvalues of (default mixing * dielectric matrix)
  average eigenvalue GAMMA=   1.5334
  6.6558  2.8436  2.4462  1.1484  1.1484  0.9577  0.9577  0.3782  0.7421  0.7421
  0.6871  0.6131  0.6131

 Free energy of the ion-electron system (eV)
  ---------------------------------------------------
  alpha Z        PSCENC =      1362.55286497
  Ewald energy   TEWEN  =    -25513.06237826
  -Hartree energ DENC   =    -10007.23249008
  -exchange      EXHF   =         0.00000000
  -V(xc)+E(xc)   XCENC  =      1356.97248044
  PAW double counting   =     35794.67351608   -36958.03771675
  entropy T*S    EENTRO =         0.00000000
  eigenvalues    EBANDS =     -3529.17932087
  atomic energy  EATOM  =     37271.85329858
  Solvation  Ediel_sol  =         0.00000000
  ---------------------------------------------------
  free energy    TOTEN  =      -221.45974589 eV

  energy without entropy =     -221.45974589  energy(sigma->0) =     -221.45974589


--------------------------------------------------------------------------------------------------------




--------------------------------------- Iteration      1(  19)  ---------------------------------------


    POTLOK:  cpu time    0.2034: real time    0.2057
    SETDIJ:  cpu time    0.0194: real time    0.0195
     EDDAV:  cpu time   33.9653: real time   34.0510
 BZINTS: Fermi energy:  6.181016;276.000000 electrons
         Band energy:***********;  BLOECHL correction: -0.032964
       DOS:  cpu time    0.0504: real time    0.0506
    CHARGE:  cpu time    1.3351: real time    1.3386
    MIXING:  cpu time    0.0069: real time    0.0070
    --------------------------------------------
      LOOP:  cpu time   35.5806: real time   35.6723

 eigenvalue-minimisations  : 13740
 total energy-change (2. order) :-0.5674679E-04  (-0.1036104E-04)
 number of electron     275.9999988 magnetization      42.3371975
 augmentation part      112.1700192 magnetization      29.3825384

 Broyden mixing:
  rms(total) = 0.17367E-02    rms(broyden)= 0.17366E-02
  rms(prec ) = 0.18506E-02
  weight for this iteration     100.00

 eigenvalues of (default mixing * dielectric matrix)
  average eigenvalue GAMMA=   1.5155
  6.7191  2.8561  2.4241  1.2984  1.2984  0.9880  0.9880  0.3782  0.7767  0.7767
  0.7428  0.7428  0.6142  0.6142

 Free energy of the ion-electron system (eV)
  ---------------------------------------------------
  alpha Z        PSCENC =      1362.55286497
  Ewald energy   TEWEN  =    -25513.06237826
  -Hartree energ DENC   =    -10007.58043394
  -exchange      EXHF   =         0.00000000
  -V(xc)+E(xc)   XCENC  =      1356.95222605
  PAW double counting   =     35790.17121934   -36953.48025062
  entropy T*S    EENTRO =         0.00000000
  eigenvalues    EBANDS =     -3528.86634876
  atomic energy  EATOM  =     37271.85329858
  Solvation  Ediel_sol  =         0.00000000
  ---------------------------------------------------
  free energy    TOTEN  =      -221.45980264 eV

  energy without entropy =     -221.45980264  energy(sigma->0) =     -221.45980264


--------------------------------------------------------------------------------------------------------




--------------------------------------- Iteration      1(  20)  ---------------------------------------


    POTLOK:  cpu time    0.2029: real time    0.2074
    SETDIJ:  cpu time    0.0196: real time    0.0196
     EDDAV:  cpu time   31.6846: real time   31.7650
 BZINTS: Fermi energy:  6.181383;276.000000 electrons
         Band energy:***********;  BLOECHL correction: -0.032971
       DOS:  cpu time    0.0495: real time    0.0497
    CHARGE:  cpu time    1.3344: real time    1.3377
    MIXING:  cpu time    0.0073: real time    0.0073
    --------------------------------------------
      LOOP:  cpu time   33.2982: real time   33.3868

 eigenvalue-minimisations  : 12444
 total energy-change (2. order) :-0.8554074E-05  (-0.2160688E-05)
 number of electron     275.9999988 magnetization      42.3335985
 augmentation part      112.1693050 magnetization      29.3804586

 Broyden mixing:
  rms(total) = 0.88394E-03    rms(broyden)= 0.88392E-03
  rms(prec ) = 0.90435E-03
  weight for this iteration     100.00

 eigenvalues of (default mixing * dielectric matrix)
  average eigenvalue GAMMA=   1.5138
  6.7518  2.9677  2.4015  1.8827  1.0866  1.0866  1.0055  1.0055  0.3782  0.7398
  0.7398  0.6050  0.6968  0.6798  0.6798

 Free energy of the ion-electron system (eV)
  ---------------------------------------------------
  alpha Z        PSCENC =      1362.55286497
  Ewald energy   TEWEN  =    -25513.06237826
  -Hartree energ DENC   =    -10007.66547133
  -exchange      EXHF   =         0.00000000
  -V(xc)+E(xc)   XCENC  =      1356.94912880
  PAW double counting   =     35790.04757894   -36953.36316414
  entropy T*S    EENTRO =         0.00000000
  eigenvalues    EBANDS =     -3528.77166875
  atomic energy  EATOM  =     37271.85329858
  Solvation  Ediel_sol  =         0.00000000
  ---------------------------------------------------
  free energy    TOTEN  =      -221.45981119 eV

  energy without entropy =     -221.45981119  energy(sigma->0) =     -221.45981119


--------------------------------------------------------------------------------------------------------




--------------------------------------- Iteration      1(  21)  ---------------------------------------


    POTLOK:  cpu time    0.2024: real time    0.2044
    SETDIJ:  cpu time    0.0195: real time    0.0196
     EDDAV:  cpu time   31.1512: real time   31.2298
 BZINTS: Fermi energy:  6.181745;276.000000 electrons
         Band energy:***********;  BLOECHL correction: -0.032968
       DOS:  cpu time    0.0511: real time    0.0513
    CHARGE:  cpu time    1.3084: real time    1.3118
    MIXING:  cpu time    0.0073: real time    0.0073
    --------------------------------------------
      LOOP:  cpu time   32.7399: real time   32.8242

 eigenvalue-minimisations  : 12612
 total energy-change (2. order) : 0.1841880E-05  (-0.2345671E-06)
 number of electron     275.9999988 magnetization      42.3356187
 augmentation part      112.1680943 magnetization      29.3822452

 Broyden mixing:
  rms(total) = 0.11283E-02    rms(broyden)= 0.11283E-02
  rms(prec ) = 0.11961E-02
  weight for this iteration     100.00

 eigenvalues of (default mixing * dielectric matrix)
  average eigenvalue GAMMA=   1.5052
  6.7522  3.0090  2.4453  2.1993  1.1932  1.1932  0.9935  0.9935  0.3782  0.7803
  0.7803  0.7325  0.7325  0.6690  0.6155  0.6155

 Free energy of the ion-electron system (eV)
  ---------------------------------------------------
  alpha Z        PSCENC =      1362.55286497
  Ewald energy   TEWEN  =    -25513.06237826
  -Hartree energ DENC   =    -10007.73828126
  -exchange      EXHF   =         0.00000000
  -V(xc)+E(xc)   XCENC  =      1356.94982970
  PAW double counting   =     35789.71069962   -36953.03593453
  entropy T*S    EENTRO =         0.00000000
  eigenvalues    EBANDS =     -3528.68990817
  atomic energy  EATOM  =     37271.85329858
  Solvation  Ediel_sol  =         0.00000000
  ---------------------------------------------------
  free energy    TOTEN  =      -221.45980935 eV

  energy without entropy =     -221.45980935  energy(sigma->0) =     -221.45980935


--------------------------------------------------------------------------------------------------------




--------------------------------------- Iteration      1(  22)  ---------------------------------------


    POTLOK:  cpu time    0.2002: real time    0.2020
    SETDIJ:  cpu time    0.0196: real time    0.0196
     EDDAV:  cpu time   28.0926: real time   28.1637
 BZINTS: Fermi energy:  6.181591;276.000000 electrons
         Band energy:***********;  BLOECHL correction: -0.032969
       DOS:  cpu time    0.0496: real time    0.0497
    CHARGE:  cpu time    1.3265: real time    1.3298
    MIXING:  cpu time    0.0079: real time    0.0079
    --------------------------------------------
      LOOP:  cpu time   29.6964: real time   29.7727

 eigenvalue-minimisations  : 10800
 total energy-change (2. order) :-0.1082437E-05  (-0.1064409E-06)
 number of electron     275.9999988 magnetization      42.3377617
 augmentation part      112.1687570 magnetization      29.3844641

 Broyden mixing:
  rms(total) = 0.51025E-03    rms(broyden)= 0.51025E-03
  rms(prec ) = 0.53903E-03
  weight for this iteration     100.00

 eigenvalues of (default mixing * dielectric matrix)
  average eigenvalue GAMMA=   1.4875
  6.7360  2.9835  2.6462  2.1485  1.3709  0.3782  1.0174  1.0174  1.0134  1.0134
  0.8052  0.8052  0.7444  0.7444  0.6086  0.6277  0.6277

 Free energy of the ion-electron system (eV)
  ---------------------------------------------------
  alpha Z        PSCENC =      1362.55286497
  Ewald energy   TEWEN  =    -25513.06237826
  -Hartree energ DENC   =    -10007.70338816
  -exchange      EXHF   =         0.00000000
  -V(xc)+E(xc)   XCENC  =      1356.95006132
  PAW double counting   =     35789.98303494   -36953.31087148
  entropy T*S    EENTRO =         0.00000000
  eigenvalues    EBANDS =     -3528.72243235
  atomic energy  EATOM  =     37271.85329858
  Solvation  Ediel_sol  =         0.00000000
  ---------------------------------------------------
  free energy    TOTEN  =      -221.45981043 eV

  energy without entropy =     -221.45981043  energy(sigma->0) =     -221.45981043


--------------------------------------------------------------------------------------------------------




--------------------------------------- Iteration      1(  23)  ---------------------------------------


    POTLOK:  cpu time    0.2018: real time    0.2033
    SETDIJ:  cpu time    0.0194: real time    0.0194
     EDDAV:  cpu time   26.4572: real time   26.5241
 BZINTS: Fermi energy:  6.181500;276.000000 electrons
         Band energy:***********;  BLOECHL correction: -0.032970
       DOS:  cpu time    0.0495: real time    0.0497
    --------------------------------------------
      LOOP:  cpu time   26.7279: real time   26.7964

 eigenvalue-minimisations  :  9816
 total energy-change (2. order) : 0.2364686E-08  (-0.2943076E-07)
 number of electron     275.9999988 magnetization      42.3377617
 augmentation part      112.1687570 magnetization      29.3844641

 Free energy of the ion-electron system (eV)
  ---------------------------------------------------
  alpha Z        PSCENC =      1362.55286497
  Ewald energy   TEWEN  =    -25513.06237826
  -Hartree energ DENC   =    -10007.68066453
  -exchange      EXHF   =         0.00000000
  -V(xc)+E(xc)   XCENC  =      1356.95072066
  PAW double counting   =     35790.18469518   -36953.51508118
  entropy T*S    EENTRO =         0.00000000
  eigenvalues    EBANDS =     -3528.74326586
  atomic energy  EATOM  =     37271.85329858
  Solvation  Ediel_sol  =         0.00000000
  ---------------------------------------------------
  free energy    TOTEN  =      -221.45981043 eV

  energy without entropy =     -221.45981043  energy(sigma->0) =     -221.45981043


--------------------------------------------------------------------------------------------------------




 average (electrostatic) potential at core
  the test charge radii are     0.9500  0.7215
  (the norm of the test charge is              1.0000)
       1 -78.6234       2 -78.6234       3 -78.6238       4 -78.6233       5 -78.6233
       6 -78.6238       7 -78.6234       8 -78.6234       9 -78.6233      10 -78.6238
      11 -78.6238      12 -78.6233      13 -69.7245      14 -69.7245      15 -69.7247
      16 -69.7249      17 -69.7250      18 -69.7248      19 -69.7245      20 -69.7245
      21 -69.7249      22 -69.7248      23 -69.7248      24 -69.7249      25 -69.7244
      26 -69.7244      27 -69.7249      28 -69.7249      29 -69.7249      30 -69.7249
 
 
 
 E-fermi :   6.1815     XC(G=0): -11.9045     alpha+bet :-12.3870


 spin component 1

 k-point     1 :       0.0000    0.0000    0.0000
  band No.  band energies     occupation 
      1     -49.9118      1.00000
      2     -49.9084      1.00000
      3     -49.9082      1.00000
      4     -49.9049      1.00000
      5     -49.9042      1.00000
      6     -49.9041      1.00000
      7     -49.8841      1.00000
      8     -49.8840      1.00000
      9     -49.8831      1.00000
     10     -49.8829      1.00000
     11     -49.8816      1.00000
     12     -49.8811      1.00000
     13     -49.8801      1.00000
     14     -49.8801      1.00000
     15     -49.8801      1.00000
     16     -49.8800      1.00000
     17     -49.8797      1.00000
     18     -49.8797      1.00000
     19     -49.8788      1.00000
     20     -49.8788      1.00000
[...]
 -0.000  -0.002   0.000  -0.000  -0.001   0.000   0.000   0.000  -0.006  -0.000   0.000  -0.000   0.000   0.009  -0.000  -0.000
 total augmentation occupancy for first ion, spin component:           2
 -0.003   0.000   0.000  -0.010  -0.000   0.000   0.002   0.001  -0.000   0.000   0.000  -0.003  -0.002   0.000  -0.000  -0.000
 -0.000  -0.003  -0.000   0.000  -0.010   0.000   0.000  -0.000  -0.001  -0.000   0.000   0.000   0.000   0.002   0.000  -0.000
 -0.000   0.000  -0.003  -0.000  -0.000  -0.010   0.000  -0.000   0.000   0.001  -0.002  -0.000   0.000  -0.000  -0.002   0.003
 -0.010   0.000  -0.000   0.021   0.000   0.000  -0.085  -0.050  -0.000   0.002   0.013   0.049   0.032   0.000  -0.001  -0.008
 -0.000  -0.010   0.000  -0.000   0.017   0.000  -0.000  -0.000   0.076  -0.000  -0.000   0.000   0.000  -0.043   0.000   0.000
  0.000   0.000  -0.010   0.000   0.000   0.021   0.013  -0.002  -0.000  -0.050   0.085  -0.008   0.001   0.000   0.032  -0.049
  0.002   0.000   0.000  -0.085   0.000   0.013   4.295   0.577   0.000  -0.179   0.000  -2.428  -0.471  -0.000   0.166   0.002
  0.001  -0.000  -0.000  -0.050   0.000  -0.002   0.577   5.021   0.000  -0.000  -0.179  -0.469  -3.025  -0.000   0.003   0.166
 -0.000  -0.001   0.000  -0.000   0.076  -0.000   0.000   0.000   4.387   0.000  -0.000   0.000  -0.000  -2.382  -0.000   0.000
  0.000   0.000   0.001   0.002  -0.000  -0.050  -0.179  -0.000   0.000   5.021  -0.577   0.166  -0.003  -0.000  -3.025   0.469
  0.000   0.000  -0.002   0.013  -0.000   0.085   0.000  -0.179  -0.000  -0.577   4.295  -0.002   0.166   0.000   0.471  -2.428
 -0.003   0.000  -0.000   0.049   0.000  -0.008  -2.428  -0.469   0.000   0.166  -0.002   1.294   0.332   0.000  -0.129   0.000
 -0.002   0.000   0.000   0.032   0.000   0.001  -0.471  -3.025  -0.000  -0.003   0.166   0.332   1.751   0.000   0.000  -0.129
  0.000   0.002  -0.000   0.000  -0.043   0.000  -0.000  -0.000  -2.382  -0.000   0.000   0.000   0.000   1.231   0.000  -0.000
 -0.000  -0.000  -0.002  -0.001  -0.000   0.032   0.166   0.003  -0.000  -3.025   0.471  -0.129  -0.000   0.000   1.751  -0.332
 -0.000  -0.000   0.003  -0.008   0.000  -0.049   0.002   0.166   0.000   0.469  -2.428  -0.000  -0.129  -0.000  -0.332   1.294
 -0.000   0.000  -0.000   0.000   0.001  -0.000  -0.000  -0.000   0.044   0.000  -0.000   0.000   0.000  -0.022   0.000   0.000
 -0.000   0.000  -0.000  -0.000   0.001  -0.000   0.000  -0.000   0.007  -0.000  -0.000  -0.000  -0.000  -0.005  -0.000   0.000


------------------------ aborting loop because EDIFF is reached ----------------------------------------


 


 total charge     
 
# of ion       s       p       d       tot
------------------------------------------
    1        0.284   6.340   5.852  12.476
    2        0.284   6.340   5.854  12.478
    3        0.284   6.340   5.862  12.486
    4        0.284   6.340   5.852  12.475
    5        0.283   6.340   5.854  12.478
    6        0.284   6.340   5.865  12.489
    7        0.284   6.340   5.851  12.474
    8        0.284   6.340   5.853  12.477
    9        0.283   6.340   5.854  12.477
   10        0.283   6.340   5.868  12.492
   11        0.283   6.340   5.865  12.489
   12        0.283   6.340   5.857  12.480
   13        1.567   3.416   0.000   4.983
   14        1.567   3.415   0.000   4.982
   15        1.567   3.416   0.000   4.983
   16        1.567   3.417   0.000   4.984
   17        1.567   3.417   0.000   4.984
   18        1.567   3.416   0.000   4.983
   19        1.566   3.403   0.000   4.970
   20        1.566   3.403   0.000   4.969
   21        1.566   3.404   0.000   4.970
   22        1.566   3.404   0.000   4.970
   23        1.566   3.404   0.000   4.970
   24        1.566   3.404   0.000   4.970
   25        1.568   3.417   0.000   4.985
   26        1.568   3.416   0.000   4.984
   27        1.568   3.418   0.000   4.986
   28        1.568   3.419   0.000   4.987
   29        1.568   3.419   0.000   4.987
   30        1.568   3.418   0.000   4.986
--------------------------------------------------
tot         31.608 137.506  70.287 239.402
 


 magnetization (x)
 
# of ion       s       p       d       tot
------------------------------------------
    1        0.024   0.036   3.141   3.201
    2        0.024   0.036   3.138   3.198
    3        0.025   0.036   3.135   3.195
    4        0.025   0.036   3.140   3.201
    5        0.025   0.036   3.140   3.201
    6        0.025   0.036   3.132   3.193
    7        0.024   0.036   3.125   3.185
    8        0.024   0.036   3.122   3.183
    9        0.025   0.036   3.123   3.183
   10        0.025   0.036   3.117   3.177
   11        0.025   0.036   3.119   3.180
   12        0.025   0.036   3.123   3.183
   13        0.020   0.139   0.000   0.160
   14        0.020   0.139   0.000   0.159
   15        0.020   0.139   0.000   0.159
   16        0.020   0.140   0.000   0.160
   17        0.020   0.140   0.000   0.161
   18        0.020   0.139   0.000   0.160
   19        0.021   0.143   0.000   0.165
   20        0.021   0.143   0.000   0.164
   21        0.021   0.144   0.000   0.165
   22        0.021   0.144   0.000   0.165
   23        0.021   0.144   0.000   0.165
   24        0.021   0.144   0.000   0.166
   25        0.020   0.135   0.000   0.156
   26        0.020   0.135   0.000   0.155
   27        0.020   0.136   0.000   0.157
   28        0.020   0.137   0.000   0.158
   29        0.020   0.137   0.000   0.157
   30        0.020   0.137   0.000   0.157
--------------------------------------------------
tot          0.668   2.948  37.555  41.170
 
    CHARGE:  cpu time    1.3293: real time    1.3328
    FORLOC:  cpu time    0.0210: real time    0.0210
    FORNL :  cpu time    9.1839: real time    9.2070
    STRESS:  cpu time   27.6362: real time   27.7061
    FORCOR:  cpu time    0.2145: real time    0.2150
    FORHAR:  cpu time    0.0395: real time    0.0396
    MIXING:  cpu time    0.0074: real time    0.0074
    OFIELD:  cpu time    0.0001: real time    0.0001

  FORCE on cell =-STRESS in cart. coord.  units (eV):
  Direction    XX          YY          ZZ          XY          YZ          ZX
  --------------------------------------------------------------------------------------
  Alpha Z  1362.55286  1362.55286  1362.55286
  Ewald   -8201.75422 -8201.75360 -9109.63806     0.00000     0.00002    -0.00000
  Hartree  3503.89458  3503.89444  2999.89167    -0.00000     0.00001    -0.00000
  E(xc)   -1615.80774 -1615.80777 -1617.37181    -0.00002    -0.00000     0.00000
  Local    -165.04950  -165.04938  1230.78760    -0.00017    -0.00003     0.00000
  n-local  -743.10385  -741.99484  -744.59382    -4.16601     0.49366     0.11398
  augment  1844.63045  1844.63028  1846.55026     0.00012     0.00000     0.00000
  Kinetic  4007.29871  4009.39431  4025.15778     7.65543    -1.99092    -5.04351
  Fock        0.00000     0.00000     0.00000     0.00000     0.00000     0.00000
  -------------------------------------------------------------------------------------
  Total      -5.73620    -5.73620    -6.66352     0.00000     0.00000     0.00000
  in kB     -30.42494   -30.42493   -35.34345     0.00000     0.00000     0.00000
  external pressure =      -32.06 kB  Pullay stress =        0.00 kB


 VOLUME and BASIS-vectors are now :
 -----------------------------------------------------------------------------
  energy-cutoff  :      960.00
  volume of cell :      302.07
      direct lattice vectors                 reciprocal lattice vectors
     5.035100000  0.000000000  0.000000000     0.198605787  0.114665118  0.000000000
    -2.517550000  4.360524000  0.000000000     0.000000000  0.229330236  0.000000000
     0.000000000  0.000000000 13.758100000     0.000000000  0.000000000  0.072684455

  length of vectors
     5.035100000  5.035099558 13.758100000     0.229330216  0.229330236  0.072684455


 FORCES acting on ions
    electron-ion (+dipol)            ewald-force                    non-local-force                 convergence-correction
 -----------------------------------------------------------------------------------------------
   0.155E-03 0.365E-03 -.126E+03   -.101E-02 0.523E-03 0.128E+03   0.651E-17 -.477E-17 -.288E+01   -.307E-07 0.163E-07 0.989E-04
   -.401E-03 0.580E-03 0.126E+03   0.101E-02 -.523E-03 -.128E+03   -.130E-17 -.347E-17 0.288E+01   0.506E-07 -.309E-07 -.989E-04
   -.135E-03 0.533E-03 -.126E+03   0.314E-02 -.187E-02 0.128E+03   0.867E-18 -.867E-18 -.288E+01   0.660E-06 -.385E-06 0.115E-03
   -.328E-03 0.644E-03 -.126E+03   -.220E-02 0.121E-02 0.128E+03   0.000E+00 0.130E-17 -.288E+01   -.600E-06 0.343E-06 0.120E-03
   0.821E-04 0.301E-03 0.126E+03   0.220E-02 -.121E-02 -.128E+03   -.477E-17 -.130E-17 0.288E+01   0.620E-06 -.357E-06 -.120E-03
   -.111E-03 0.412E-03 0.126E+03   -.314E-02 0.187E-02 -.128E+03   -.651E-17 0.390E-17 0.288E+01   -.641E-06 0.371E-06 -.115E-03
   0.566E-03 -.105E-02 0.126E+03   0.964E-03 -.523E-03 -.128E+03   0.390E-17 0.390E-17 0.288E+01   0.487E-07 -.242E-07 -.989E-04
   0.104E-02 -.127E-02 -.126E+03   -.964E-03 0.523E-03 0.128E+03   -.607E-17 0.347E-17 -.288E+01   -.348E-07 0.200E-07 0.989E-04
   0.105E-02 -.133E-02 0.126E+03   0.215E-02 -.121E-02 -.128E+03   -.173E-17 -.651E-17 0.288E+01   0.616E-06 -.354E-06 -.120E-03
   0.750E-03 -.110E-02 -.126E+03   0.319E-02 -.187E-02 0.128E+03   0.217E-18 -.347E-17 -.288E+01   0.659E-06 -.378E-06 0.115E-03
   0.856E-03 -.122E-02 0.126E+03   -.319E-02 0.187E-02 -.128E+03   0.217E-18 0.000E+00 0.288E+01   -.645E-06 0.373E-06 -.115E-03
   0.557E-03 -.988E-03 -.126E+03   -.215E-02 0.121E-02 0.128E+03   0.130E-17 -.347E-17 -.288E+01   -.602E-06 0.350E-06 0.120E-03
   -.424E+02 -.134E-02 0.216E-03   0.418E+02 0.106E-02 -.470E-03   0.676E+00 0.103E-17 0.867E-17   0.241E-03 0.151E-06 -.191E-07
   0.424E+02 -.868E-04 -.337E-03   -.418E+02 -.106E-02 0.470E-03   -.676E+00 0.813E-18 0.271E-17   -.241E-03 -.160E-06 0.854E-08
   -.424E+02 -.320E-02 -.584E-02   0.418E+02 0.570E-03 -.997E-03   0.676E+00 -.201E-17 -.596E-18   0.241E-03 -.136E-06 -.481E-05
   -.424E+02 0.240E-02 0.545E-02   0.418E+02 -.163E-02 0.147E-02   0.676E+00 0.596E-18 -.564E-17   0.241E-03 -.262E-07 0.481E-05
   0.424E+02 -.383E-02 -.557E-02   -.418E+02 0.163E-02 -.147E-02   -.676E+00 0.426E-17 -.726E-17   -.241E-03 0.177E-07 -.483E-05
   0.424E+02 0.177E-02 0.572E-02   -.418E+02 -.570E-03 0.997E-03   -.676E+00 -.184E-17 -.108E-17   -.241E-03 0.128E-06 0.480E-05
   0.212E+02 -.367E+02 -.308E-03   -.209E+02 0.362E+02 0.438E-03   -.338E+00 0.585E+00 -.347E-17   -.120E-03 0.209E-03 0.831E-08
   -.212E+02 0.367E+02 0.194E-03   0.209E+02 -.362E+02 -.438E-03   0.338E+00 -.585E+00 -.347E-17   0.120E-03 -.209E-03 -.189E-07
   0.212E+02 -.367E+02 -.554E-02   -.209E+02 0.362E+02 -.150E-02   -.338E+00 0.585E+00 -.347E-17   -.121E-03 0.209E-03 -.483E-05
   0.212E+02 -.367E+02 0.575E-02   -.209E+02 0.362E+02 0.964E-03   -.338E+00 0.585E+00 0.520E-17   -.121E-03 0.208E-03 0.480E-05
   -.212E+02 0.367E+02 -.586E-02   0.209E+02 -.362E+02 -.964E-03   0.338E+00 -.585E+00 -.520E-17   0.121E-03 -.208E-03 -.481E-05
   -.212E+02 0.367E+02 0.542E-02   0.209E+02 -.362E+02 0.150E-02   0.338E+00 -.585E+00 -.347E-17   0.121E-03 -.209E-03 0.482E-05
   0.212E+02 0.367E+02 0.939E-04   -.209E+02 -.362E+02 0.322E-04   -.338E+00 -.585E+00 0.130E-17   -.121E-03 -.209E-03 0.108E-07
   -.212E+02 -.367E+02 0.144E-03   0.209E+02 0.362E+02 -.322E-04   0.338E+00 0.585E+00 -.130E-17   0.121E-03 0.209E-03 0.103E-07
   0.212E+02 0.367E+02 -.409E-02   -.209E+02 -.362E+02 -.303E-02   -.338E+00 -.585E+00 0.867E-18   -.120E-03 -.209E-03 -.482E-05
   -.212E+02 -.367E+02 -.404E-02   0.209E+02 0.362E+02 -.310E-02   0.338E+00 0.585E+00 0.520E-17   0.121E-03 0.208E-03 -.482E-05
   0.212E+02 0.367E+02 0.427E-02   -.209E+02 -.362E+02 0.310E-02   -.338E+00 -.585E+00 0.434E-18   -.121E-03 -.208E-03 0.484E-05
   -.212E+02 -.367E+02 0.433E-02   0.209E+02 0.362E+02 0.303E-02   0.338E+00 0.585E+00 0.130E-17   0.120E-03 0.209E-03 0.484E-05
 -----------------------------------------------------------------------------------------------
   0.150E-01 -.165E-01 -.111E-04   -.995E-13 -.995E-13 -.192E-12   0.888E-15 0.111E-15 -.453E-15   0.120E-06 -.580E-07 0.254E-09
 
 
 POSITION                                       TOTAL-FORCE (eV/Angst)
 -----------------------------------------------------------------------------------
      0.00000      0.00000      4.88853        -0.000000     -0.000000     -0.926166
      0.00000      0.00000      8.86957        -0.000000     -0.000000      0.926166
     -0.00000      2.90702      0.30250        -0.000000     -0.000000     -0.926166
      2.51755      1.45351      9.47456        -0.000000     -0.000000     -0.926166
     -0.00000      2.90702      4.28354        -0.000000     -0.000000      0.926166
      2.51755      1.45351     13.45560        -0.000000     -0.000000      0.926166
      0.00000      0.00000      1.99052        -0.000000     -0.000000      0.926166
      0.00000      0.00000     11.76758        -0.000000     -0.000000     -0.926166
     -0.00000      2.90702     11.16259        -0.000000     -0.000000      0.926166
     -0.00000      2.90702      7.18155        -0.000000     -0.000000     -0.926166
      2.51755      1.45351      6.57655        -0.000000     -0.000000      0.926166
      2.51755      1.45351      2.59551        -0.000000     -0.000000     -0.926166
      1.54165      0.00000      3.43953         0.083605     -0.000000     -0.000000
      3.49345      0.00000     10.31858        -0.083605     -0.000000     -0.000000
      1.54164      2.90702     12.61160         0.083605     -0.000000     -0.000000
      4.05920      1.45351      8.02555         0.083605     -0.000000     -0.000000
     -1.54165      2.90702      5.73255        -0.083605     -0.000000     -0.000000
      0.97591      1.45351      1.14650        -0.083605     -0.000000     -0.000000
     -0.77082      1.33511      3.43953        -0.041802      0.072404     -0.000000
     -1.74673      3.02542     10.31858         0.041802     -0.072404     -0.000000
     -0.77083      4.24212     12.61160        -0.041802      0.072404     -0.000000
      1.74673      2.78861      8.02555        -0.041802      0.072404      0.000000
      0.77082      1.57191      5.73255         0.041802     -0.072404     -0.000000
      3.28838      0.11840      1.14650         0.041802     -0.072404      0.000000
      1.74673      3.02542      3.43953        -0.041802     -0.072404     -0.000000
      0.77082      1.33511     10.31858         0.041802      0.072404     -0.000000
     -0.77083      1.57191     12.61160        -0.041802     -0.072404     -0.000000
      0.77082      4.24212      5.73255         0.041802      0.072404     -0.000000
      1.74673      0.11840      8.02555        -0.041802     -0.072404      0.000000
      3.28838      2.78861      1.14650         0.041802      0.072404      0.000000
 -----------------------------------------------------------------------------------
    total drift:                                0.015003     -0.016540     -0.000011


--------------------------------------------------------------------------------------------------------



  FREE ENERGIE OF THE ION-ELECTRON SYSTEM (eV)
  ---------------------------------------------------
  free  energy   TOTEN  =      -221.45981043 eV

  energy  without entropy=     -221.45981043  energy(sigma->0) =     -221.45981043
 


--------------------------------------------------------------------------------------------------------


    POTLOK:  cpu time    0.2213: real time    0.2218


--------------------------------------------------------------------------------------------------------


     LOOP+:  cpu time  807.5058: real time  809.6178
    4ORBIT:  cpu time    0.0000: real time    0.0000
 


 total charge     
 
# of ion       s       p       d       tot
------------------------------------------
    1        0.284   6.340   5.852  12.476
    2        0.284   6.340   5.854  12.478
    3        0.284   6.340   5.862  12.486
    4        0.284   6.340   5.852  12.475
    5        0.283   6.340   5.854  12.478
    6        0.284   6.340   5.865  12.489
    7        0.284   6.340   5.851  12.474
    8        0.284   6.340   5.853  12.477
    9        0.283   6.340   5.854  12.477
   10        0.283   6.340   5.868  12.492
   11        0.283   6.340   5.865  12.489
   12        0.283   6.340   5.857  12.480
   13        1.567   3.416   0.000   4.983
   14        1.567   3.415   0.000   4.982
   15        1.567   3.416   0.000   4.983
   16        1.567   3.417   0.000   4.984
   17        1.567   3.417   0.000   4.984
   18        1.567   3.416   0.000   4.983
   19        1.566   3.403   0.000   4.970
   20        1.566   3.403   0.000   4.969
   21        1.566   3.404   0.000   4.970
   22        1.566   3.404   0.000   4.970
   23        1.566   3.404   0.000   4.970
   24        1.566   3.404   0.000   4.970
   25        1.568   3.417   0.000   4.985
   26        1.568   3.416   0.000   4.984
   27        1.568   3.418   0.000   4.986
   28        1.568   3.419   0.000   4.987
   29        1.568   3.419   0.000   4.987
   30        1.568   3.418   0.000   4.986
--------------------------------------------------
tot         31.608 137.506  70.287 239.402
 


 magnetization (x)
 
# of ion       s       p       d       tot
------------------------------------------
    1        0.024   0.036   3.141   3.201
    2        0.024   0.036   3.138   3.198
    3        0.025   0.036   3.135   3.195
    4        0.025   0.036   3.140   3.201
    5        0.025   0.036   3.140   3.201
    6        0.025   0.036   3.132   3.193
    7        0.024   0.036   3.125   3.185
    8        0.024   0.036   3.122   3.183
    9        0.025   0.036   3.123   3.183
   10        0.025   0.036   3.117   3.177
   11        0.025   0.036   3.119   3.180
   12        0.025   0.036   3.123   3.183
   13        0.020   0.139   0.000   0.160
   14        0.020   0.139   0.000   0.159
   15        0.020   0.139   0.000   0.159
   16        0.020   0.140   0.000   0.160
   17        0.020   0.140   0.000   0.161
   18        0.020   0.139   0.000   0.160
   19        0.021   0.143   0.000   0.165
   20        0.021   0.143   0.000   0.164
   21        0.021   0.144   0.000   0.165
   22        0.021   0.144   0.000   0.165
   23        0.021   0.144   0.000   0.165
   24        0.021   0.144   0.000   0.166
   25        0.020   0.135   0.000   0.156
   26        0.020   0.135   0.000   0.155
   27        0.020   0.136   0.000   0.157
   28        0.020   0.137   0.000   0.158
   29        0.020   0.137   0.000   0.157
   30        0.020   0.137   0.000   0.157
--------------------------------------------------
tot          0.668   2.948  37.555  41.170
 
 BZINTS: Fermi energy:  6.181500;276.000000 electrons
         Band energy:***********;  BLOECHL correction: -0.032970

 total amount of memory used by VASP MPI-rank0   151316. kBytes
=======================================================================

   base      :      30000. kBytes
   nonlr-proj:      12767. kBytes
   fftplans  :       8134. kBytes
   grid      :      20656. kBytes
   one-center:        248. kBytes
   wavefun   :      79511. kBytes
 
  
  
 General timing and accounting informations for this job:
 ========================================================
  
                  Total CPU time used (sec):      820.216
                            User time (sec):      818.610
                          System time (sec):        1.606
                         Elapsed time (sec):      822.429
  
                   Maximum memory used (kb):      201444.
                   Average memory used (kb):           0.
  
                          Minor page faults:        62895
                          Major page faults:            0
                 Voluntary context switches:          255
