       N       E                     dE             d eps       ncg     rms          rms(c)
DAV:   1     0.195555382920E+03    0.19556E+03   -0.11904E+04  3784   0.135E+03
DAV:   2    -0.852184512900E+01   -0.20408E+03   -0.19340E+03  3416   0.351E+02
DAV:   3    -0.170588125839E+02   -0.85370E+01   -0.85070E+01  3640   0.802E+01
DAV:   4    -0.171240064262E+02   -0.65194E-01   -0.65191E-01  3648   0.673E+00
DAV:   5    -0.171249715837E+02   -0.96516E-03   -0.96515E-03  3696   0.758E-01
DAV:   6    -0.171249932340E+02   -0.21650E-04   -0.21650E-04  3664   0.104E-01
DAV:   7    -0.171249938133E+02   -0.57932E-06   -0.58062E-06  2960   0.164E-02
   1 F= -.17124994E+02 E0= -.17104907E+02  d E =-.401740E-01  mag=     4.4316
