=========================================
SLURM_JOB_ID = 43761573
SLURM_JOB_NODELIST = lnode52
SLURM_GPUS = 
SLURM_CPUS_ON_NODE = 8
SLURM_JOB_PARTITION = lenovo
SLURM_TASK_PID = 2413608
CUDA_VISIBLE_DEVICES = 
==========================================
 running on    8 total cores
 distrk:  each k-point on    8 cores,    1 groups
 distr:  one band on    4 cores,    2 groups
 using from now: INCAR     
 vasp.5.4.4.18Apr17-6-g9f103f2a35 (build Apr 28 2018 00:24:27) complex          
  
 POSCAR found type information on POSCAR  Eu S 
 POSCAR found :  2 types and       2 ions
 scaLAPACK will be used

 ----------------------------------------------------------------------------- 
|                                                                             |
|  ADVICE TO THIS USER RUNNING 'VASP/VAMP'   (HEAR YOUR MASTER'S VOICE ...):  |
|                                                                             |
|      You have a (more or less) 'small supercell' and for smaller cells      |
|      it is recommended  to use the reciprocal-space projection scheme!      |
|      The real space optimization is not  efficient for small cells and it   |
|      is also less accurate ...                                              |
|      Therefore set LREAL=.FALSE. in the  INCAR file                         |
|                                                                             |
 ----------------------------------------------------------------------------- 

 LDA part: xc-table for Pade appr. of Perdew
 POSCAR, INCAR and KPOINTS ok, starting setup
 FFT: planning ...
 WAVECAR not read
 entering main loop
       N       E                     dE             d eps       ncg     rms          rms(c)
DAV:   1     0.152160188117E+03    0.15216E+03   -0.96428E+03 33932   0.231E+03
DAV:   2     0.116191841138E+01   -0.15100E+03   -0.13392E+03 32640   0.268E+02
DAV:   3    -0.152840774706E+02   -0.16446E+02   -0.15934E+02 34100   0.970E+01
DAV:   4    -0.161733534047E+02   -0.88928E+00   -0.87575E+00 47812   0.202E+01
DAV:   5    -0.162157290319E+02   -0.42376E-01   -0.42195E-01 42688   0.361E+00    0.129E+01
DAV:   6    -0.201927224673E+02   -0.39770E+01   -0.45856E+01 43660   0.675E+01    0.176E+01
DAV:   7    -0.190883534223E+02    0.11044E+01   -0.28239E+00 35024   0.388E+01    0.653E+00
DAV:   8    -0.187628132556E+02    0.32554E+00   -0.14171E+00 50124   0.141E+01    0.250E+00
DAV:   9    -0.188363088140E+02   -0.73496E-01   -0.13630E+00 39436   0.988E+00    0.348E+00
DAV:  10    -0.187480386731E+02    0.88270E-01   -0.82095E-01 38112   0.741E+00    0.106E+00
DAV:  11    -0.187637637787E+02   -0.15725E-01   -0.21711E-02 45928   0.112E+00    0.590E-01
DAV:  12    -0.187616309446E+02    0.21328E-02   -0.61526E-03 44948   0.749E-01    0.540E-01
DAV:  13    -0.187596066002E+02    0.20243E-02   -0.42628E-03 44324   0.547E-01    0.305E-01
DAV:  14    -0.187591005430E+02    0.50606E-03   -0.15225E-03 48008   0.325E-01    0.185E-01
DAV:  15    -0.187588942893E+02    0.20625E-03   -0.26056E-03 38528   0.430E-01    0.100E-02
DAV:  16    -0.187589041032E+02   -0.98140E-05   -0.11701E-04 44604   0.554E-02    0.946E-03
DAV:  17    -0.187589044358E+02   -0.33257E-06   -0.37097E-06 38672   0.923E-03
   1 F= -.18758904E+02 E0= -.18758904E+02  d E =0.000000E+00  mag=     6.9905
