=========================================
SLURM_JOB_ID = 63601036
SLURM_JOB_NODELIST = lnode13
SLURM_GPUS = 
SLURM_CPUS_ON_NODE = 8
SLURM_JOB_PARTITION = lenovo
SLURM_TASK_PID = 853748
CUDA_VISIBLE_DEVICES = 
==========================================
 running on    8 total cores
 distrk:  each k-point on    8 cores,    1 groups
 distr:  one band on    4 cores,    2 groups
 using from now: INCAR     
 vasp.5.4.4.18Apr17-6-g9f103f2a35 (build Apr 28 2018 00:24:27) complex          
  
 POSCAR found type information on POSCAR  Ni O 
 POSCAR found :  2 types and      32 ions
 scaLAPACK will be used

 ----------------------------------------------------------------------------- 
|                                                                             |
|  ADVICE TO THIS USER RUNNING 'VASP/VAMP'   (HEAR YOUR MASTER'S VOICE ...):  |
|                                                                             |
|      You have a (more or less) 'large supercell' and for larger cells       |
|      it might be more efficient to use real space projection opertators     |
|      So try LREAL= Auto  in the INCAR   file.                               |
|      Mind:          For very  accurate calculation you might also keep the  |
|      reciprocal projection scheme          (i.e. LREAL=.FALSE.)             |
|                                                                             |
 ----------------------------------------------------------------------------- 

 LDA part: xc-table for Pade appr. of Perdew
 WARNING: stress and forces are not correct
 POSCAR, INCAR and KPOINTS ok, starting setup
 FFT: planning ...
 WAVECAR not read
 charge-density read from file: unknown                                 
 magnetization density read from file 1
 entering main loop
       N       E                     dE             d eps       ncg     rms          rms(c)
DAV:   1     0.515287436519E+04    0.51529E+04   -0.18441E+05 10072   0.190E+03
DAV:   2     0.380624067462E+03   -0.47723E+04   -0.45431E+04  8808   0.640E+02
DAV:   3    -0.168933360421E+03   -0.54956E+03   -0.50274E+03  9424   0.228E+02
DAV:   4    -0.199183319191E+03   -0.30250E+02   -0.29566E+02  9736   0.498E+01
DAV:   5    -0.199750603023E+03   -0.56728E+00   -0.56524E+00  9616   0.757E+00
DAV:   6    -0.199765239468E+03   -0.14636E-01   -0.14624E-01  9768   0.119E+00
DAV:   7    -0.199765819768E+03   -0.58030E-03   -0.58014E-03  9888   0.245E-01
DAV:   8    -0.199765847164E+03   -0.27396E-04   -0.27392E-04  9776   0.516E-02
DAV:   9    -0.199765848699E+03   -0.15341E-05   -0.15358E-05  9880   0.124E-02
DAV:  10    -0.199765848756E+03   -0.57829E-07   -0.56948E-07  5904   0.245E-03
   1 F= -.19976585E+03 E0= -.19952894E+03  d E =-.473819E+00  mag=    11.6748
 writing wavefunctions
