=========================================
SLURM_JOB_ID = 30574112
SLURM_JOB_NODELIST = lnode20
SLURM_GPUS = 
SLURM_CPUS_ON_NODE = 8
SLURM_JOB_PARTITION = lenovo
SLURM_TASK_PID = 1308937
CUDA_VISIBLE_DEVICES = 
==========================================
 running on    8 total cores
 distrk:  each k-point on    8 cores,    1 groups
 distr:  one band on    4 cores,    2 groups
 using from now: INCAR     
 vasp.5.4.4.18Apr17-6-g9f103f2a35 (build Apr 28 2018 00:24:27) complex          
  
 POSCAR found type information on POSCAR  Co
 POSCAR found :  1 types and       2 ions
 scaLAPACK will be used
 LDA part: xc-table for Pade appr. of Perdew


 VERY BAD NEWS! internal error in subroutine IBZKPT:
 Reciprocal lattice and k-lattice belong to different class of lattices. Often results are still useful...      48


 VERY BAD NEWS! internal error in subroutine IBZKPT:
 Reciprocal lattice and k-lattice belong to different class of lattices. Often results are still useful...      48


 VERY BAD NEWS! internal error in subroutine IBZKPT:
 Reciprocal lattice and k-lattice belong to different class of lattices. Often results are still useful...      48



 VERY BAD NEWS! internal error in subroutine IBZKPT:
 Reciprocal lattice and k-lattice belong to different class of lattices. Often results are still useful...      48


 VERY BAD NEWS! internal error in subroutine IBZKPT:
 Reciprocal lattice and k-lattice belong to different class of lattices. Often results are still useful...      48

 VERY BAD NEWS! internal error in subroutine IBZKPT:
 Reciprocal lattice and k-lattice belong to different class of lattices. Often results are still useful...      48


 VERY BAD NEWS! internal error in subroutine IBZKPT:
 Reciprocal lattice and k-lattice belong to different class of lattices. Often results are still useful...      48


 VERY BAD NEWS! internal error in subroutine IBZKPT:
 Reciprocal lattice and k-lattice belong to different class of lattices. Often results are still useful...      48
 POSCAR, INCAR and KPOINTS ok, starting setup
 FFT: planning ...
 WAVECAR not read
 entering main loop
       N       E                     dE             d eps       ncg     rms          rms(c)
DAV:   1     0.844356674119E+02    0.84436E+02   -0.86122E+03  9184   0.175E+03
DAV:   2    -0.138635090072E+02   -0.98299E+02   -0.91954E+02  9084   0.275E+02
DAV:   3    -0.160682114390E+02   -0.22047E+01   -0.21424E+01 10290   0.601E+01
DAV:   4    -0.161003373164E+02   -0.32126E-01   -0.32124E-01 13022   0.562E+00
DAV:   5    -0.161006549955E+02   -0.31768E-03   -0.31772E-03 10706   0.527E-01    0.147E+01
DAV:   6    -0.140950598109E+02    0.20056E+01   -0.15883E+01  9390   0.828E+01    0.636E+00
DAV:   7    -0.136522617448E+02    0.44280E+00   -0.22334E+00  9876   0.299E+01    0.273E+00
DAV:   8    -0.136271757840E+02    0.25086E-01   -0.17440E-02 13758   0.207E+00    0.120E+00
DAV:   9    -0.136167119628E+02    0.10464E-01   -0.38371E-03 12148   0.113E+00    0.353E-01
DAV:  10    -0.136147363622E+02    0.19756E-02   -0.70727E-04 13596   0.422E-01    0.792E-02
DAV:  11    -0.136147464905E+02   -0.10128E-04   -0.39603E-05 10300   0.106E-01    0.520E-02
DAV:  12    -0.136147481332E+02   -0.16427E-05   -0.27846E-06  8362   0.321E-02    0.179E-02
DAV:  13    -0.136147494069E+02   -0.12737E-05   -0.21218E-06  6086   0.306E-02    0.588E-03
DAV:  14    -0.136147502828E+02   -0.87596E-06   -0.10775E-06  4788   0.140E-02
   1 F= -.13614750E+02 E0= -.13614750E+02  d E =0.000000E+00  mag=    -0.0000
