 vasp.5.4.4.18Apr17-6-g9f103f2a35 (build Apr 28 2018 00:24:27) complex          
  
 executed on             LinuxIFC date 2021.03.19  23:54:46
 running on    8 total cores
 distrk:  each k-point on    8 cores,    1 groups
 distr:  one band on NCORES_PER_BAND=   4 cores,    2 groups


--------------------------------------------------------------------------------------------------------


 INCAR:
 POTCAR:    PAW_PBE Co 02Aug2007                  
 POTCAR:    PAW_PBE Co 02Aug2007                  
   SHA256 =  0e690c60710354995174544f52f9f2c30879afabeffe3b3fbd4001cb294e56d4 Co
   COPYR  = (c) Copyright 02Aug2007 Georg Kresse                                
   COPYR  = This file is part of the software VASP. Any use, copying, and all ot
   COPYR  = If you do not have a valid VASP license, you may not use, copy or di
   VRHFIN =Co: d8 s1                                                            
   LEXCH  = PE                                                                  
   EATOM  =   813.3670 eV,   59.7808 Ry                                         
                                                                                
   TITEL  = PAW_PBE Co 02Aug2007                                                
   LULTRA =        F    use ultrasoft PP ?                                      
   IUNSCR =        1    unscreen: 0-lin 1-nonlin 2-no                           
   RPACOR =    2.000    partial core radius                                     
   POMASS =   58.933; ZVAL   =    9.000    mass and valenz                      
   RCORE  =    2.300    outmost cutoff radius                                   
   RWIGS  =    2.460; RWIGS  =    1.302    wigner-seitz radius (au A)           
   ENMAX  =  267.968; ENMIN  =  200.976 eV                                      
   RCLOC  =    1.203    cutoff for local pot                                    
   LCOR   =        T    correct aug charges                                     
   LPAW   =        T    paw PP                                                  
   EAUG   =  477.818                                                            
   DEXC   =    0.000                                                            
   RMAX   =    2.360    core radius for proj-oper                               
   RAUG   =    1.300    factor for augmentation sphere                          
   RDEP   =    2.393    radius for radial grids                                 
   RDEPT  =    1.864    core radius for aug-charge                              
                                                                                
   Atomic configuration                                                         
    9 entries                                                                   
     n  l   j            E        occ.                                          
     1  0  0.50     -7587.6674   2.0000                                         
     2  0  0.50      -893.6084   2.0000                                         
     2  1  1.50      -764.5805   6.0000                                         
     3  0  0.50       -97.5973   2.0000                                         
     3  1  1.50       -60.9648   6.0000                                         
     3  2  2.50        -4.2382   8.0000                                         
     4  0  0.50        -4.3746   1.0000                                         
     4  1  1.50        -4.0817   0.0000                                         
     4  3  2.50        -1.3606   0.0000                                         
   Description                                                                  
     l       E           TYP  RCUT    TYP  RCUT                                 
     2     -4.2382362     23  2.300                                             
     2     -5.5988188     23  2.300                                             
     0     -4.3745797     23  2.300                                             
     0      5.7660125     23  2.300                                             
     1     -2.7211652     23  2.300                                             
     1     16.9860234     23  2.300                                             
  local pseudopotential read in
  partial core-charges read in
  partial kinetic energy density read in
  atomic valenz-charges read in
  non local Contribution for L=           2  read in
    real space projection operators read in
  non local Contribution for L=           2  read in
    real space projection operators read in
  non local Contribution for L=           0  read in
    real space projection operators read in
  non local Contribution for L=           0  read in
    real space projection operators read in
  non local Contribution for L=           1  read in
    real space projection operators read in
  non local Contribution for L=           1  read in
    real space projection operators read in
    PAW grid and wavefunctions read in
 
   number of l-projection  operators is LMAX  =           6
   number of lm-projection operators is LMMAX =          18
 
  PAW_PBE Co 02Aug2007                  :
 energy of atom  1       EATOM= -813.3670
 kinetic energy error for atom=    0.0028 (will be added to EATOM!!)
 
 
 POSCAR: Co2 str #: 1                            
  positions in direct lattice
  No initial velocities read in
 exchange correlation table for  LEXCH =        8
   RHO(1)=    0.500       N(1)  =     2000
   RHO(2)=  100.500       N(2)  =     4000
 


--------------------------------------------------------------------------------------------------------


 ion  position               nearest neighbor table
   1  0.667  0.750  0.667-   2 2.47   2 2.47   2 2.47   2 2.47   2 2.47   2 2.47
   2  0.333  0.250  0.333-   1 2.47   1 2.47   1 2.47   1 2.47   1 2.47   1 2.47
 
  LATTYP: Found a hexagonal cell.
 ALAT       =     2.4918167332
 C/A-ratio  =     1.6115141000
  
  Lattice vectors:
  
 A1 = (   1.2459087000,   2.1579764000,   0.0000000000)
 A2 = (   1.2459083000,  -2.1579764000,   0.0000000000)
 A3 = (   0.0000000000,   0.0000000000,  -4.0155978000)


Analysis of symmetry for initial positions (statically):
=====================================================================
 Subroutine PRICEL returns:
 Original cell was already a primitive cell.
 

 Routine SETGRP: Setting up the symmetry group for a 
 hexagonal supercell.


 Subroutine GETGRP returns: Found 24 space group operations
 (whereof 12 operations were pure point group operations)
 out of a pool of 24 trial point group operations.


The static configuration has the point symmetry D_3d.
 The point group associated with its full space group is D_6h.


Analysis of symmetry for dynamics (positions and initial velocities):
=====================================================================
 Subroutine PRICEL returns:
 Original cell was already a primitive cell.
 

 Routine SETGRP: Setting up the symmetry group for a 
 hexagonal supercell.


 Subroutine GETGRP returns: Found 24 space group operations
 (whereof 12 operations were pure point group operations)
 out of a pool of 24 trial point group operations.


The dynamic configuration has the point symmetry D_3d.
 The point group associated with its full space group is D_6h.


Analysis of structural, dynamic, and magnetic symmetry:
=====================================================================
 Subroutine PRICEL returns:
 Original cell was already a primitive cell.
 

 Routine SETGRP: Setting up the symmetry group for a 
 hexagonal supercell.


 Subroutine GETGRP returns: Found 24 space group operations
 (whereof 12 operations were pure point group operations)
 out of a pool of 24 trial point group operations.


The magnetic configuration has the point symmetry D_3d.
 The point group associated with its full space group is D_6h.


 Subroutine INISYM returns: Found 24 space group operations
 (whereof 12 operations are pure point group operations),
 and found     1 'primitive' translations

 
 
 KPOINTS: pymatgen v2021.2.8.1 with grid density =

Automatic generation of k-mesh.
Space group operators:
 irot       det(A)        alpha          n_x          n_y          n_z        tau_x        tau_y        tau_z
    1     1.000000     0.000000     1.000000     0.000000     0.000000     0.000000     0.000000     0.000000
    2    -1.000000     0.000000     1.000000     0.000000     0.000000     0.000000     0.000000     0.000000
    3     1.000000   120.000000     0.000000     0.000000     1.000000     0.000000     0.000000     0.000000
    4    -1.000000   120.000000     0.000000     0.000000     1.000000     0.000000     0.000000     0.000000
    5     1.000000   120.000000     0.000000     0.000000    -1.000000     0.000000     0.000000     0.000000
    6    -1.000000   120.000000     0.000000     0.000000    -1.000000     0.000000     0.000000     0.000000
    7     1.000000   179.999999    -0.500000    -0.866025     0.000000     0.000000     0.000000     0.000000
    8    -1.000000   179.999999    -0.500000    -0.866025     0.000000     0.000000     0.000000     0.000000
    9     1.000000   180.000000     0.500000    -0.866025     0.000000     0.000000     0.000000     0.000000
   10    -1.000000   180.000000     0.500000    -0.866025     0.000000     0.000000     0.000000     0.000000
   11     1.000000   180.000000     1.000000    -0.000000     0.000000     0.000000     0.000000     0.000000
   12    -1.000000   180.000000     1.000000    -0.000000     0.000000     0.000000     0.000000     0.000000
   13     1.000000    60.000000     0.000000     0.000000     1.000000    -0.000001    -0.500000     0.000000
   14    -1.000000    60.000000     0.000000     0.000000     1.000000    -0.000001    -0.500000     0.000000
   15     1.000000   180.000000     0.000000     0.000000     1.000000    -0.000000    -0.500000     0.000000
   16    -1.000000   180.000000     0.000000     0.000000     1.000000     0.000000    -0.500000     0.000000
   17     1.000000    60.000000     0.000000     0.000000    -1.000000    -0.000001    -0.500000     0.000001
   18    -1.000000    60.000000     0.000000     0.000000    -1.000000    -0.000001    -0.500000     0.000001
   19     1.000000   180.000000     0.000000     1.000000     0.000000    -0.000001    -0.500000     0.000001
   20    -1.000000   180.000000     0.000000     1.000000     0.000000    -0.000001    -0.500000     0.000001
   21     1.000000   180.000000     0.866025    -0.500000     0.000000     0.000000    -0.500000     0.000000
   22    -1.000000   180.000000     0.866025    -0.500000     0.000000    -0.000000    -0.500000     0.000000
   23     1.000000   180.000000     0.866025     0.500000     0.000000    -0.000001    -0.500000     0.000000
   24    -1.000000   180.000000     0.866025     0.500000     0.000000    -0.000001    -0.500000     0.000000
 
 Subroutine IBZKPT returns following result:
 ===========================================
 
 Found    162 irreducible k-points:
 
 Following reciprocal coordinates:
            Coordinates               Weight
  0.000000  0.000000  0.000000      1.000000
  0.100000  0.000000 -0.000000      2.000000
  0.200000  0.000000  0.000000      2.000000
  0.300000  0.000000  0.000000      2.000000
  0.400000  0.000000  0.000000      2.000000
  0.500000  0.000000  0.000000      3.000000
  0.000000  0.100000  0.000000      2.000000
  0.100000  0.100000 -0.000000      4.000000
  0.200000  0.100000  0.000000      4.000000
  0.300000  0.100000  0.000000      4.000000
  0.400000  0.100000  0.000000      4.000000
  0.500000  0.100000  0.000000      6.000000
  0.000000  0.200000  0.000000      2.000000
  0.100000  0.200000 -0.000000      4.000000
  0.200000  0.200000  0.000000      4.000000
  0.300000  0.200000  0.000000      4.000000
  0.400000  0.200000  0.000000      4.000000
  0.500000  0.200000  0.000000      6.000000
  0.000000  0.300000  0.000000      2.000000
  0.100000  0.300000 -0.000000      4.000000
  0.200000  0.300000  0.000000      4.000000
  0.300000  0.300000  0.000000      4.000000
  0.400000  0.300000  0.000000      4.000000
  0.500000  0.300000  0.000000      6.000000
  0.000000  0.400000  0.000000      2.000000
  0.100000  0.400000 -0.000000      4.000000
  0.200000  0.400000  0.000000      4.000000
  0.300000  0.400000  0.000000      4.000000
  0.400000  0.400000  0.000000      4.000000
  0.500000  0.400000  0.000000      6.000000
  0.000000  0.500000  0.000000      1.000000
  0.100000  0.500000 -0.000000      2.000000
  0.200000  0.500000  0.000000      2.000000
  0.300000  0.500000  0.000000      2.000000
  0.400000  0.500000  0.000000      2.000000
  0.500000  0.500000  0.000000      3.000000
  0.000000  0.000000  0.166667      2.000000
  0.100000  0.000000  0.166667      2.000000
  0.200000  0.000000  0.166667      2.000000
  0.300000  0.000000  0.166667      2.000000
  0.400000  0.000000  0.166667      2.000000
  0.500000  0.000000  0.166667      4.000000
 -0.400000  0.000000  0.166667      2.000000
 -0.300000  0.000000  0.166667      2.000000
 -0.200000  0.000000  0.166667      2.000000
 -0.100000  0.000000  0.166667      2.000000
  0.000000  0.100000  0.166667      4.000000
  0.100000  0.100000  0.166667      4.000000
  0.200000  0.100000  0.166667      4.000000
  0.300000  0.100000  0.166667      4.000000
  0.400000  0.100000  0.166667      4.000000
  0.500000  0.100000  0.166667      8.000000
 -0.400000  0.100000  0.166667      4.000000
 -0.300000  0.100000  0.166667      4.000000
 -0.200000  0.100000  0.166667      4.000000
 -0.100000  0.100000  0.166667      4.000000
  0.000000  0.200000  0.166667      4.000000
  0.100000  0.200000  0.166667      4.000000
  0.200000  0.200000  0.166667      4.000000
  0.300000  0.200000  0.166667      4.000000
  0.400000  0.200000  0.166667      4.000000
  0.500000  0.200000  0.166667      8.000000
 -0.400000  0.200000  0.166667      4.000000
 -0.300000  0.200000  0.166667      4.000000
 -0.200000  0.200000  0.166667      4.000000
 -0.100000  0.200000  0.166667      4.000000
  0.000000  0.300000  0.166667      4.000000
  0.100000  0.300000  0.166667      4.000000
  0.200000  0.300000  0.166667      4.000000
  0.300000  0.300000  0.166667      4.000000
  0.400000  0.300000  0.166667      4.000000
  0.500000  0.300000  0.166667      8.000000
 -0.400000  0.300000  0.166667      4.000000
 -0.300000  0.300000  0.166667      4.000000
 -0.200000  0.300000  0.166667      4.000000
 -0.100000  0.300000  0.166667      4.000000
  0.000000  0.400000  0.166667      4.000000
  0.100000  0.400000  0.166667      4.000000
  0.200000  0.400000  0.166667      4.000000
  0.300000  0.400000  0.166667      4.000000
  0.400000  0.400000  0.166667      4.000000
  0.500000  0.400000  0.166667      8.000000
 -0.400000  0.400000  0.166667      4.000000
 -0.300000  0.400000  0.166667      4.000000
 -0.200000  0.400000  0.166667      4.000000
 -0.100000  0.400000  0.166667      4.000000
  0.000000  0.500000  0.166667      2.000000
  0.100000  0.500000  0.166667      2.000000
  0.200000  0.500000  0.166667      2.000000
  0.300000  0.500000  0.166667      2.000000
  0.400000  0.500000  0.166667      2.000000
  0.500000  0.500000  0.166667      4.000000
 -0.400000  0.500000  0.166667      2.000000
 -0.300000  0.500000  0.166667      2.000000
 -0.200000  0.500000  0.166667      2.000000
 -0.100000  0.500000  0.166667      2.000000
  0.000000  0.000000  0.333333      2.000000
  0.100000  0.000000  0.333333      2.000000
  0.200000  0.000000  0.333333      2.000000
  0.300000  0.000000  0.333333      2.000000
  0.400000  0.000000  0.333333      2.000000
 -0.400000  0.000000  0.333333      2.000000
 -0.300000  0.000000  0.333333      2.000000
 -0.200000  0.000000  0.333333      2.000000
 -0.100000  0.000000  0.333333      2.000000
  0.000000  0.100000  0.333333      4.000000
  0.100000  0.100000  0.333333      4.000000
  0.200000  0.100000  0.333333      4.000000
  0.300000  0.100000  0.333333      4.000000
  0.400000  0.100000  0.333333      4.000000
 -0.400000  0.100000  0.333333      4.000000
 -0.300000  0.100000  0.333333      4.000000
 -0.200000  0.100000  0.333333      4.000000
 -0.100000  0.100000  0.333333      4.000000
  0.000000  0.200000  0.333333      4.000000
  0.100000  0.200000  0.333333      4.000000
  0.200000  0.200000  0.333333      4.000000
  0.300000  0.200000  0.333333      4.000000
  0.400000  0.200000  0.333333      4.000000
 -0.400000  0.200000  0.333333      4.000000
 -0.300000  0.200000  0.333333      4.000000
 -0.200000  0.200000  0.333333      4.000000
 -0.100000  0.200000  0.333333      4.000000
  0.000000  0.300000  0.333333      4.000000
  0.100000  0.300000  0.333333      4.000000
  0.200000  0.300000  0.333333      4.000000
  0.300000  0.300000  0.333333      4.000000
  0.400000  0.300000  0.333333      4.000000
 -0.400000  0.300000  0.333333      4.000000
 -0.300000  0.300000  0.333333      4.000000
 -0.200000  0.300000  0.333333      4.000000
 -0.100000  0.300000  0.333333      4.000000
  0.000000  0.400000  0.333333      4.000000
  0.100000  0.400000  0.333333      4.000000
  0.200000  0.400000  0.333333      4.000000
  0.300000  0.400000  0.333333      4.000000
  0.400000  0.400000  0.333333      4.000000
 -0.400000  0.400000  0.333333      4.000000
 -0.300000  0.400000  0.333333      4.000000
 -0.200000  0.400000  0.333333      4.000000
 -0.100000  0.400000  0.333333      4.000000
  0.000000  0.500000  0.333333      2.000000
  0.100000  0.500000  0.333333      2.000000
  0.200000  0.500000  0.333333      2.000000
  0.300000  0.500000  0.333333      2.000000
  0.400000  0.500000  0.333333      2.000000
 -0.400000  0.500000  0.333333      2.000000
 -0.300000  0.500000  0.333333      2.000000
 -0.200000  0.500000  0.333333      2.000000
 -0.100000  0.500000  0.333333      2.000000
  0.100000  0.000000  0.500000      4.000000
  0.200000  0.000000  0.500000      4.000000
  0.100000  0.100000  0.500000      8.000000
  0.200000  0.100000  0.500000      8.000000
  0.100000  0.200000  0.500000      8.000000
  0.200000  0.200000  0.500000      8.000000
  0.100000  0.300000  0.500000      8.000000
  0.200000  0.300000  0.500000      8.000000
  0.100000  0.400000  0.500000      8.000000
  0.200000  0.400000  0.500000      8.000000
  0.100000  0.500000  0.500000      4.000000
  0.200000  0.500000  0.500000      4.000000
 
 Following cartesian coordinates:
            Coordinates               Weight
  0.000000  0.000000  0.000000      1.000000
 -0.040131  0.023170  0.000000      2.000000
 -0.080263  0.046340  0.000000      2.000000
 -0.120394  0.069510  0.000000      2.000000
 -0.160525  0.092679  0.000000      2.000000
 -0.200657  0.115849  0.000000      3.000000
  0.000000  0.000000  0.024903      2.000000
 -0.040131  0.023170  0.024903      4.000000
 -0.080263  0.046340  0.024903      4.000000
 -0.120394  0.069510  0.024903      4.000000
 -0.160525  0.092679  0.024903      4.000000
 -0.200657  0.115849  0.024903      6.000000
  0.000000  0.000000  0.049806      2.000000
 -0.040131  0.023170  0.049806      4.000000
 -0.080263  0.046340  0.049806      4.000000
 -0.120394  0.069510  0.049806      4.000000
 -0.160525  0.092679  0.049806      4.000000
 -0.200657  0.115849  0.049806      6.000000
  0.000000  0.000000  0.074709      2.000000
 -0.040131  0.023170  0.074709      4.000000
 -0.080263  0.046340  0.074709      4.000000
 -0.120394  0.069510  0.074709      4.000000
 -0.160525  0.092679  0.074709      4.000000
 -0.200657  0.115849  0.074709      6.000000
  0.000000  0.000000  0.099612      2.000000
 -0.040131  0.023170  0.099612      4.000000
 -0.080263  0.046340  0.099612      4.000000
 -0.120394  0.069510  0.099612      4.000000
 -0.160525  0.092679  0.099612      4.000000
 -0.200657  0.115849  0.099612      6.000000
  0.000000  0.000000  0.124514      1.000000
 -0.040131  0.023170  0.124514      2.000000
 -0.080263  0.046340  0.124514      2.000000
 -0.120394  0.069510  0.124514      2.000000
 -0.160525  0.092679  0.124514      2.000000
 -0.200657  0.115849  0.124514      3.000000
  0.066886  0.038616  0.000000      2.000000
  0.026754  0.061786  0.000000      2.000000
 -0.013377  0.084956  0.000000      2.000000
 -0.053508  0.108126  0.000000      2.000000
 -0.093640  0.131296  0.000000      2.000000
 -0.133771  0.154466  0.000000      4.000000
  0.227411 -0.054063  0.000000      2.000000
  0.187280 -0.030893  0.000000      2.000000
  0.147148 -0.007723  0.000000      2.000000
  0.107017  0.015447  0.000000      2.000000
  0.066886  0.038616  0.024903      4.000000
  0.026754  0.061786  0.024903      4.000000
 -0.013377  0.084956  0.024903      4.000000
 -0.053508  0.108126  0.024903      4.000000
 -0.093640  0.131296  0.024903      4.000000
 -0.133771  0.154466  0.024903      8.000000
  0.227411 -0.054063  0.024903      4.000000
  0.187280 -0.030893  0.024903      4.000000
  0.147148 -0.007723  0.024903      4.000000
  0.107017  0.015447  0.024903      4.000000
  0.066886  0.038616  0.049806      4.000000
  0.026754  0.061786  0.049806      4.000000
 -0.013377  0.084956  0.049806      4.000000
 -0.053508  0.108126  0.049806      4.000000
 -0.093640  0.131296  0.049806      4.000000
 -0.133771  0.154466  0.049806      8.000000
  0.227411 -0.054063  0.049806      4.000000
  0.187280 -0.030893  0.049806      4.000000
  0.147148 -0.007723  0.049806      4.000000
  0.107017  0.015447  0.049806      4.000000
  0.066886  0.038616  0.074709      4.000000
  0.026754  0.061786  0.074709      4.000000
 -0.013377  0.084956  0.074709      4.000000
 -0.053508  0.108126  0.074709      4.000000
 -0.093640  0.131296  0.074709      4.000000
 -0.133771  0.154466  0.074709      8.000000
  0.227411 -0.054063  0.074709      4.000000
  0.187280 -0.030893  0.074709      4.000000
  0.147148 -0.007723  0.074709      4.000000
  0.107017  0.015447  0.074709      4.000000
  0.066886  0.038616  0.099612      4.000000
  0.026754  0.061786  0.099612      4.000000
 -0.013377  0.084956  0.099612      4.000000
 -0.053508  0.108126  0.099612      4.000000
 -0.093640  0.131296  0.099612      4.000000
 -0.133771  0.154466  0.099612      8.000000
  0.227411 -0.054063  0.099612      4.000000
  0.187280 -0.030893  0.099612      4.000000
  0.147148 -0.007723  0.099612      4.000000
  0.107017  0.015447  0.099612      4.000000
  0.066886  0.038616  0.124514      2.000000
  0.026754  0.061786  0.124514      2.000000
 -0.013377  0.084956  0.124514      2.000000
 -0.053508  0.108126  0.124514      2.000000
 -0.093640  0.131296  0.124514      2.000000
 -0.133771  0.154466  0.124514      4.000000
  0.227411 -0.054063  0.124514      2.000000
  0.187280 -0.030893  0.124514      2.000000
  0.147148 -0.007723  0.124514      2.000000
  0.107017  0.015447  0.124514      2.000000
  0.133771  0.077233  0.000000      2.000000
  0.093640  0.100403  0.000000      2.000000
  0.053508  0.123573  0.000000      2.000000
  0.013377  0.146742  0.000000      2.000000
 -0.026754  0.169912  0.000000      2.000000
  0.294297 -0.015447  0.000000      2.000000
  0.254165  0.007723  0.000000      2.000000
  0.214034  0.030893  0.000000      2.000000
  0.173903  0.054063  0.000000      2.000000
  0.133771  0.077233  0.024903      4.000000
  0.093640  0.100403  0.024903      4.000000
  0.053508  0.123573  0.024903      4.000000
  0.013377  0.146742  0.024903      4.000000
 -0.026754  0.169912  0.024903      4.000000
  0.294297 -0.015447  0.024903      4.000000
  0.254165  0.007723  0.024903      4.000000
  0.214034  0.030893  0.024903      4.000000
  0.173903  0.054063  0.024903      4.000000
  0.133771  0.077233  0.049806      4.000000
  0.093640  0.100403  0.049806      4.000000
  0.053508  0.123573  0.049806      4.000000
  0.013377  0.146742  0.049806      4.000000
 -0.026754  0.169912  0.049806      4.000000
  0.294297 -0.015447  0.049806      4.000000
  0.254165  0.007723  0.049806      4.000000
  0.214034  0.030893  0.049806      4.000000
  0.173903  0.054063  0.049806      4.000000
  0.133771  0.077233  0.074709      4.000000
  0.093640  0.100403  0.074709      4.000000
  0.053508  0.123573  0.074709      4.000000
  0.013377  0.146742  0.074709      4.000000
 -0.026754  0.169912  0.074709      4.000000
  0.294297 -0.015447  0.074709      4.000000
  0.254165  0.007723  0.074709      4.000000
  0.214034  0.030893  0.074709      4.000000
  0.173903  0.054063  0.074709      4.000000
  0.133771  0.077233  0.099612      4.000000
  0.093640  0.100403  0.099612      4.000000
  0.053508  0.123573  0.099612      4.000000
  0.013377  0.146742  0.099612      4.000000
 -0.026754  0.169912  0.099612      4.000000
  0.294297 -0.015447  0.099612      4.000000
  0.254165  0.007723  0.099612      4.000000
  0.214034  0.030893  0.099612      4.000000
  0.173903  0.054063  0.099612      4.000000
  0.133771  0.077233  0.124514      2.000000
  0.093640  0.100403  0.124514      2.000000
  0.053508  0.123573  0.124514      2.000000
  0.013377  0.146742  0.124514      2.000000
 -0.026754  0.169912  0.124514      2.000000
  0.294297 -0.015447  0.124514      2.000000
  0.254165  0.007723  0.124514      2.000000
  0.214034  0.030893  0.124514      2.000000
  0.173903  0.054063  0.124514      2.000000
  0.160525  0.139019  0.000000      4.000000
  0.120394  0.162189  0.000000      4.000000
  0.160525  0.139019  0.024903      8.000000
  0.120394  0.162189  0.024903      8.000000
  0.160525  0.139019  0.049806      8.000000
  0.120394  0.162189  0.049806      8.000000
  0.160525  0.139019  0.074709      8.000000
  0.120394  0.162189  0.074709      8.000000
  0.160525  0.139019  0.099612      8.000000
  0.120394  0.162189  0.099612      8.000000
  0.160525  0.139019  0.124514      4.000000
  0.120394  0.162189  0.124514      4.000000
 
 TETIRR: Found   1800 inequivalent tetrahedra from     3600


--------------------------------------------------------------------------------------------------------




 Dimension of arrays:
   k-points           NKPTS =    162   k-points in BZ     NKDIM =    162   number of bands    NBANDS=     14
   number of dos      NEDOS =    301   number of ions     NIONS =      2
   non local maximal  LDIM  =      6   non local SUM 2l+1 LMDIM =     18
   total plane-waves  NPLWV =   4704
   max r-space proj   IRMAX =      1   max aug-charges    IRDMAX=   8790
   dimension x,y,z NGX =    14 NGY =   24 NGZ =   14
   dimension x,y,z NGXF=    28 NGYF=   48 NGZF=   28
   support grid    NGXF=    28 NGYF=   48 NGZF=   28
   ions per type =               2
   NGX,Y,Z   is equivalent  to a cutoff of   9.34,  9.94,  9.34 a.u.
   NGXF,Y,Z  is equivalent  to a cutoff of  18.68, 19.87, 18.68 a.u.

 SYSTEM =  "Co_hcp"                                
 POSCAR =  Co2 str #: 1                            

 Startparameter for this run:
   NWRITE =      2    write-flag & timer
   PREC   = normal    normal or accurate (medium, high low for compatibility)
   ISTART =      0    job   : 0-new  1-cont  2-samecut
   ICHARG =      2    charge: 1-file 2-atom 10-const
   ISPIN  =      2    spin polarized calculation?
   LNONCOLLINEAR =      F non collinear calculations
   LSORBIT =      F    spin-orbit coupling
   INIWAV =      1    electr: 0-lowe 1-rand  2-diag
   LASPH  =      F    aspherical Exc in radial PAW
   METAGGA=      F    non-selfconsistent MetaGGA calc.

 Electronic Relaxation 1
   ENCUT  =  520.0 eV  38.22 Ry    6.18 a.u.   4.63  7.47  4.63*2*pi/ulx,y,z
   ENINI  =  520.0     initial cutoff
   ENAUG  =  477.8 eV  augmentation charge cutoff
   NELM   =     60;   NELMIN=  2; NELMDL= -5     # of ELM steps 
   EDIFF  = 0.1E-05   stopping-criterion for ELM
   LREAL  =      F    real-space projection
   NLSPLINE    = F    spline interpolate recip. space projectors
   LCOMPAT=      F    compatible to vasp.4.4
   GGA_COMPAT  = T    GGA compatible to vasp.4.4-vasp.4.6
   LMAXPAW     = -100 max onsite density
   LMAXMIX     =    2 max onsite mixed and CHGCAR
   VOSKOWN=      0    Vosko Wilk Nusair interpolation
   ROPT   =    0.00000
 Ionic relaxation
   EDIFFG = 0.1E-04   stopping-criterion for IOM
   NSW    =      0    number of steps for IOM
   NBLOCK =      1;   KBLOCK =      1    inner block; outer block 
   IBRION =     -1    ionic relax: 0-MD 1-quasi-New 2-CG
   NFREE  =      1    steps in history (QN), initial steepest desc. (CG)
   ISIF   =      2    stress and relaxation
   IWAVPR =     10    prediction:  0-non 1-charg 2-wave 3-comb
   ISYM   =      2    0-nonsym 1-usesym 2-fastsym
   LCORR  =      T    Harris-Foulkes like correction to forces

   POTIM  = 0.5000    time-step for ionic-motion
   TEIN   =    0.0    initial temperature
   TEBEG  =    0.0;   TEEND  =   0.0 temperature during run
   SMASS  =  -3.00    Nose mass-parameter (am)
   estimated Nose-frequenzy (Omega)   =  0.10E-29 period in steps =****** mass=  -0.142E-27a.u.
   SCALEE = 1.0000    scale energy and forces
   NPACO  =    256;   APACO  = 16.0  distance and # of slots for P.C.
   PSTRESS=    0.0 pullay stress

  Mass of Ions in am
   POMASS =  58.93
  Ionic Valenz
   ZVAL   =   9.00
  Atomic Wigner-Seitz radii
   RWIGS  =  -1.00
  virtual crystal weights 
   VCA    =   1.00
   NELECT =      18.0000    total number of electrons
   NUPDOWN=      -1.0000    fix difference up-down

 DOS related values:
   EMIN   =  10.00;   EMAX   =-10.00  energy-range for DOS
   EFERMI =   0.00
   ISMEAR =    -5;   SIGMA  =   0.05  broadening in eV -4-tet -1-fermi 0-gaus

 Electronic relaxation 2 (details)
   IALGO  =     38    algorithm
   LDIAG  =      T    sub-space diagonalisation (order eigenvalues)
   LSUBROT=      F    optimize rotation matrix (better conditioning)
   TURBO    =      0    0=normal 1=particle mesh
   IRESTART =      0    0=no restart 2=restart with 2 vectors
   NREBOOT  =      0    no. of reboots
   NMIN     =      0    reboot dimension
   EREF     =   0.00    reference energy to select bands
   IMIX   =      4    mixing-type and parameters
     AMIX     =   0.40;   BMIX     =  1.00
     AMIX_MAG =   1.60;   BMIX_MAG =  1.00
     AMIN     =   0.10
     WC   =   100.;   INIMIX=   1;  MIXPRE=   1;  MAXMIX= -45

 Intra band minimization:
   WEIMIN = 0.0000     energy-eigenvalue tresh-hold
   EBREAK =  0.18E-07  absolut break condition
   DEPER  =   0.30     relativ break condition  

   TIME   =   0.40     timestep for ELM

  volume/ion in A,a.u.               =      10.80        72.86
  Fermi-wavevector in a.u.,A,eV,Ry     =   1.540735  2.911567 32.298391  2.373865
  Thomas-Fermi vector in A             =   2.646780
 
 Write flags
   LWAVE        =      F    write WAVECAR
   LDOWNSAMPLE  =      F    k-point downsampling of WAVECAR
   LCHARG       =      F    write CHGCAR
   LVTOT        =      F    write LOCPOT, total local potential
   LVHAR        =      F    write LOCPOT, Hartree potential only
   LELF         =      F    write electronic localiz. function (ELF)
   LORBIT       =     11    0 simple, 1 ext, 2 COOP (PROOUT), +10 PAW based schemes


 Dipole corrections
   LMONO  =      F    monopole corrections only (constant potential shift)
   LDIPOL =      F    correct potential (dipole corrections)
   IDIPOL =      0    1-x, 2-y, 3-z, 4-all directions 
   EPSILON=  1.0000000 bulk dielectric constant

 Exchange correlation treatment:
   GGA     =    --    GGA type
   LEXCH   =     8    internal setting for exchange type
   VOSKOWN=      0    Vosko Wilk Nusair interpolation
   LHFCALC =     F    Hartree Fock is set to
   LHFONE  =     F    Hartree Fock one center treatment
   AEXX    =    0.0000 exact exchange contribution

 Linear response parameters
   LEPSILON=     F    determine dielectric tensor
   LRPA    =     F    only Hartree local field effects (RPA)
   LNABLA  =     F    use nabla operator in PAW spheres
   LVEL    =     F    velocity operator in full k-point grid
   LINTERFAST=   F  fast interpolation
   KINTER  =     0    interpolate to denser k-point grid
   CSHIFT  =0.1000    complex shift for real part using Kramers Kronig
   OMEGAMAX=  -1.0    maximum frequency
   DEG_THRESHOLD= 0.2000000E-02 threshold for treating states as degnerate
   RTIME   =   -0.100 relaxation time in fs
  (WPLASMAI=    0.000 imaginary part of plasma frequency in eV, 0.658/RTIME)
   DFIELD  = 0.0000000 0.0000000 0.0000000 field for delta impulse in time
 
 Orbital magnetization related:
   ORBITALMAG=     F  switch on orbital magnetization
   LCHIMAG   =     F  perturbation theory with respect to B field
   DQ        =  0.001000  dq finite difference perturbation B field
   LLRAUG    =     F  two centre corrections for induced B field



--------------------------------------------------------------------------------------------------------


 Static calculation
 charge density and potential will be updated during run
 spin polarized calculation
 Variant of blocked Davidson
 Davidson routine will perform the subspace rotation
 perform sub-space diagonalisation
    after iterative eigenvector-optimisation
 modified Broyden-mixing scheme, WC =      100.0
 initial mixing is a Kerker type mixing with AMIX =  0.4000 and BMIX =      1.0000
 Hartree-type preconditioning will be used
 using additional bands            5
 reciprocal scheme for non local part
 use partial core corrections
 calculate Harris-corrections to forces 
   (improved forces if not selfconsistent)
 use gradient corrections 
 use of overlap-Matrix (Vanderbilt PP)
 Fermi weights with tetrahedron method with Bloechl corrections


--------------------------------------------------------------------------------------------------------


  energy-cutoff  :      520.00
  volume of cell :       21.59
      direct lattice vectors                 reciprocal lattice vectors
    -1.245908300  2.157976400  0.000000000    -0.401313580  0.231698586  0.000000000
     0.000000000  0.000000000  4.015597800     0.000000000  0.000000000  0.249028924
     1.245908700  2.157976400  0.000000000     0.401313580  0.231698512  0.000000000

  length of vectors
     2.491816533  4.015597800  2.491816733     0.463397048  0.249028924  0.463397011


 
 k-points in units of 2pi/SCALE and weight: pymatgen v2021.2.8.1 with grid density =
   0.00000000  0.00000000  0.00000000       0.002
  -0.04013136  0.02316986  0.00000000       0.003
  -0.08026272  0.04633972  0.00000000       0.003
  -0.12039407  0.06950958  0.00000000       0.003
  -0.16052543  0.09267943  0.00000000       0.003
  -0.20065679  0.11584929  0.00000000       0.005
   0.00000000  0.00000000  0.02490289       0.003
  -0.04013136  0.02316986  0.02490289       0.007
  -0.08026272  0.04633972  0.02490289       0.007
  -0.12039407  0.06950958  0.02490289       0.007
  -0.16052543  0.09267943  0.02490289       0.007
  -0.20065679  0.11584929  0.02490289       0.010
   0.00000000  0.00000000  0.04980578       0.003
  -0.04013136  0.02316986  0.04980578       0.007
  -0.08026272  0.04633972  0.04980578       0.007
  -0.12039407  0.06950958  0.04980578       0.007
  -0.16052543  0.09267943  0.04980578       0.007
  -0.20065679  0.11584929  0.04980578       0.010
   0.00000000  0.00000000  0.07470868       0.003
  -0.04013136  0.02316986  0.07470868       0.007
  -0.08026272  0.04633972  0.07470868       0.007
  -0.12039407  0.06950958  0.07470868       0.007
  -0.16052543  0.09267943  0.07470868       0.007
  -0.20065679  0.11584929  0.07470868       0.010
   0.00000000  0.00000000  0.09961157       0.003
  -0.04013136  0.02316986  0.09961157       0.007
  -0.08026272  0.04633972  0.09961157       0.007
  -0.12039407  0.06950958  0.09961157       0.007
  -0.16052543  0.09267943  0.09961157       0.007
  -0.20065679  0.11584929  0.09961157       0.010
   0.00000000  0.00000000  0.12451446       0.002
  -0.04013136  0.02316986  0.12451446       0.003
  -0.08026272  0.04633972  0.12451446       0.003
  -0.12039407  0.06950958  0.12451446       0.003
  -0.16052543  0.09267943  0.12451446       0.003
  -0.20065679  0.11584929  0.12451446       0.005
   0.06688560  0.03861642  0.00000000       0.003
   0.02675424  0.06178628  0.00000000       0.003
  -0.01337712  0.08495614  0.00000000       0.003
  -0.05350848  0.10812599  0.00000000       0.003
  -0.09363984  0.13129585  0.00000000       0.003
  -0.13377119  0.15446571  0.00000000       0.007
   0.22741103 -0.05406302  0.00000000       0.003
   0.18727967 -0.03089316  0.00000000       0.003
   0.14714831 -0.00772330  0.00000000       0.003
   0.10701695  0.01544656  0.00000000       0.003
   0.06688560  0.03861642  0.02490289       0.007
   0.02675424  0.06178628  0.02490289       0.007
  -0.01337712  0.08495614  0.02490289       0.007
  -0.05350848  0.10812599  0.02490289       0.007
  -0.09363984  0.13129585  0.02490289       0.007
  -0.13377119  0.15446571  0.02490289       0.013
   0.22741103 -0.05406302  0.02490289       0.007
   0.18727967 -0.03089316  0.02490289       0.007
   0.14714831 -0.00772330  0.02490289       0.007
   0.10701695  0.01544656  0.02490289       0.007
   0.06688560  0.03861642  0.04980578       0.007
   0.02675424  0.06178628  0.04980578       0.007
  -0.01337712  0.08495614  0.04980578       0.007
  -0.05350848  0.10812599  0.04980578       0.007
  -0.09363984  0.13129585  0.04980578       0.007
  -0.13377119  0.15446571  0.04980578       0.013
   0.22741103 -0.05406302  0.04980578       0.007
   0.18727967 -0.03089316  0.04980578       0.007
   0.14714831 -0.00772330  0.04980578       0.007
   0.10701695  0.01544656  0.04980578       0.007
   0.06688560  0.03861642  0.07470868       0.007
   0.02675424  0.06178628  0.07470868       0.007
  -0.01337712  0.08495614  0.07470868       0.007
  -0.05350848  0.10812599  0.07470868       0.007
  -0.09363984  0.13129585  0.07470868       0.007
  -0.13377119  0.15446571  0.07470868       0.013
   0.22741103 -0.05406302  0.07470868       0.007
   0.18727967 -0.03089316  0.07470868       0.007
   0.14714831 -0.00772330  0.07470868       0.007
   0.10701695  0.01544656  0.07470868       0.007
   0.06688560  0.03861642  0.09961157       0.007
   0.02675424  0.06178628  0.09961157       0.007
  -0.01337712  0.08495614  0.09961157       0.007
  -0.05350848  0.10812599  0.09961157       0.007
  -0.09363984  0.13129585  0.09961157       0.007
  -0.13377119  0.15446571  0.09961157       0.013
   0.22741103 -0.05406302  0.09961157       0.007
   0.18727967 -0.03089316  0.09961157       0.007
   0.14714831 -0.00772330  0.09961157       0.007
   0.10701695  0.01544656  0.09961157       0.007
   0.06688560  0.03861642  0.12451446       0.003
   0.02675424  0.06178628  0.12451446       0.003
  -0.01337712  0.08495614  0.12451446       0.003
  -0.05350848  0.10812599  0.12451446       0.003
  -0.09363984  0.13129585  0.12451446       0.003
  -0.13377119  0.15446571  0.12451446       0.007
   0.22741103 -0.05406302  0.12451446       0.003
   0.18727967 -0.03089316  0.12451446       0.003
   0.14714831 -0.00772330  0.12451446       0.003
   0.10701695  0.01544656  0.12451446       0.003
   0.13377119  0.07723284  0.00000000       0.003
   0.09363984  0.10040270  0.00000000       0.003
   0.05350848  0.12357255  0.00000000       0.003
   0.01337712  0.14674241  0.00000000       0.003
  -0.02675424  0.16991227  0.00000000       0.003
   0.29429663 -0.01544660  0.00000000       0.003
   0.25416527  0.00772326  0.00000000       0.003
   0.21403391  0.03089312  0.00000000       0.003
   0.17390255  0.05406298  0.00000000       0.003
   0.13377119  0.07723284  0.02490289       0.007
   0.09363984  0.10040270  0.02490289       0.007
   0.05350848  0.12357255  0.02490289       0.007
   0.01337712  0.14674241  0.02490289       0.007
  -0.02675424  0.16991227  0.02490289       0.007
   0.29429663 -0.01544660  0.02490289       0.007
   0.25416527  0.00772326  0.02490289       0.007
   0.21403391  0.03089312  0.02490289       0.007
   0.17390255  0.05406298  0.02490289       0.007
   0.13377119  0.07723284  0.04980578       0.007
   0.09363984  0.10040270  0.04980578       0.007
   0.05350848  0.12357255  0.04980578       0.007
   0.01337712  0.14674241  0.04980578       0.007
  -0.02675424  0.16991227  0.04980578       0.007
   0.29429663 -0.01544660  0.04980578       0.007
   0.25416527  0.00772326  0.04980578       0.007
   0.21403391  0.03089312  0.04980578       0.007
   0.17390255  0.05406298  0.04980578       0.007
   0.13377119  0.07723284  0.07470868       0.007
   0.09363984  0.10040270  0.07470868       0.007
   0.05350848  0.12357255  0.07470868       0.007
   0.01337712  0.14674241  0.07470868       0.007
  -0.02675424  0.16991227  0.07470868       0.007
   0.29429663 -0.01544660  0.07470868       0.007
   0.25416527  0.00772326  0.07470868       0.007
   0.21403391  0.03089312  0.07470868       0.007
   0.17390255  0.05406298  0.07470868       0.007
   0.13377119  0.07723284  0.09961157       0.007
   0.09363984  0.10040270  0.09961157       0.007
   0.05350848  0.12357255  0.09961157       0.007
   0.01337712  0.14674241  0.09961157       0.007
  -0.02675424  0.16991227  0.09961157       0.007
   0.29429663 -0.01544660  0.09961157       0.007
   0.25416527  0.00772326  0.09961157       0.007
   0.21403391  0.03089312  0.09961157       0.007
   0.17390255  0.05406298  0.09961157       0.007
   0.13377119  0.07723284  0.12451446       0.003
   0.09363984  0.10040270  0.12451446       0.003
   0.05350848  0.12357255  0.12451446       0.003
   0.01337712  0.14674241  0.12451446       0.003
  -0.02675424  0.16991227  0.12451446       0.003
   0.29429663 -0.01544660  0.12451446       0.003
   0.25416527  0.00772326  0.12451446       0.003
   0.21403391  0.03089312  0.12451446       0.003
   0.17390255  0.05406298  0.12451446       0.003
   0.16052543  0.13901911  0.00000000       0.007
   0.12039407  0.16218897  0.00000000       0.007
   0.16052543  0.13901911  0.02490289       0.013
   0.12039407  0.16218897  0.02490289       0.013
   0.16052543  0.13901911  0.04980578       0.013
   0.12039407  0.16218897  0.04980578       0.013
   0.16052543  0.13901911  0.07470868       0.013
   0.12039407  0.16218897  0.07470868       0.013
   0.16052543  0.13901911  0.09961157       0.013
   0.12039407  0.16218897  0.09961157       0.013
   0.16052543  0.13901911  0.12451446       0.007
   0.12039407  0.16218897  0.12451446       0.007
 
 k-points in reciprocal lattice and weights: pymatgen v2021.2.8.1 with grid density =
   0.00000000  0.00000000  0.00000000       0.002
   0.10000000  0.00000000 -0.00000000       0.003
   0.20000000  0.00000000  0.00000000       0.003
   0.30000000  0.00000000  0.00000000       0.003
   0.40000000  0.00000000  0.00000000       0.003
   0.50000000  0.00000000  0.00000000       0.005
   0.00000000  0.10000000  0.00000000       0.003
   0.10000000  0.10000000 -0.00000000       0.007
   0.20000000  0.10000000  0.00000000       0.007
   0.30000000  0.10000000  0.00000000       0.007
   0.40000000  0.10000000  0.00000000       0.007
   0.50000000  0.10000000  0.00000000       0.010
   0.00000000  0.20000000  0.00000000       0.003
   0.10000000  0.20000000 -0.00000000       0.007
   0.20000000  0.20000000  0.00000000       0.007
   0.30000000  0.20000000  0.00000000       0.007
   0.40000000  0.20000000  0.00000000       0.007
   0.50000000  0.20000000  0.00000000       0.010
   0.00000000  0.30000000  0.00000000       0.003
   0.10000000  0.30000000 -0.00000000       0.007
   0.20000000  0.30000000  0.00000000       0.007
   0.30000000  0.30000000  0.00000000       0.007
   0.40000000  0.30000000  0.00000000       0.007
   0.50000000  0.30000000  0.00000000       0.010
   0.00000000  0.40000000  0.00000000       0.003
   0.10000000  0.40000000 -0.00000000       0.007
   0.20000000  0.40000000  0.00000000       0.007
   0.30000000  0.40000000  0.00000000       0.007
   0.40000000  0.40000000  0.00000000       0.007
   0.50000000  0.40000000  0.00000000       0.010
   0.00000000  0.50000000  0.00000000       0.002
   0.10000000  0.50000000 -0.00000000       0.003
   0.20000000  0.50000000  0.00000000       0.003
   0.30000000  0.50000000  0.00000000       0.003
   0.40000000  0.50000000  0.00000000       0.003
   0.50000000  0.50000000  0.00000000       0.005
   0.00000000  0.00000000  0.16666667       0.003
   0.10000000  0.00000000  0.16666667       0.003
   0.20000000  0.00000000  0.16666667       0.003
   0.30000000  0.00000000  0.16666667       0.003
   0.40000000  0.00000000  0.16666667       0.003
   0.50000000  0.00000000  0.16666667       0.007
  -0.40000000  0.00000000  0.16666667       0.003
  -0.30000000  0.00000000  0.16666667       0.003
  -0.20000000  0.00000000  0.16666667       0.003
  -0.10000000  0.00000000  0.16666667       0.003
   0.00000000  0.10000000  0.16666667       0.007
   0.10000000  0.10000000  0.16666667       0.007
   0.20000000  0.10000000  0.16666667       0.007
   0.30000000  0.10000000  0.16666667       0.007
   0.40000000  0.10000000  0.16666667       0.007
   0.50000000  0.10000000  0.16666667       0.013
  -0.40000000  0.10000000  0.16666667       0.007
  -0.30000000  0.10000000  0.16666667       0.007
  -0.20000000  0.10000000  0.16666667       0.007
  -0.10000000  0.10000000  0.16666667       0.007
   0.00000000  0.20000000  0.16666667       0.007
   0.10000000  0.20000000  0.16666667       0.007
   0.20000000  0.20000000  0.16666667       0.007
   0.30000000  0.20000000  0.16666667       0.007
   0.40000000  0.20000000  0.16666667       0.007
   0.50000000  0.20000000  0.16666667       0.013
  -0.40000000  0.20000000  0.16666667       0.007
  -0.30000000  0.20000000  0.16666667       0.007
  -0.20000000  0.20000000  0.16666667       0.007
  -0.10000000  0.20000000  0.16666667       0.007
   0.00000000  0.30000000  0.16666667       0.007
   0.10000000  0.30000000  0.16666667       0.007
   0.20000000  0.30000000  0.16666667       0.007
   0.30000000  0.30000000  0.16666667       0.007
   0.40000000  0.30000000  0.16666667       0.007
   0.50000000  0.30000000  0.16666667       0.013
  -0.40000000  0.30000000  0.16666667       0.007
  -0.30000000  0.30000000  0.16666667       0.007
  -0.20000000  0.30000000  0.16666667       0.007
  -0.10000000  0.30000000  0.16666667       0.007
   0.00000000  0.40000000  0.16666667       0.007
   0.10000000  0.40000000  0.16666667       0.007
   0.20000000  0.40000000  0.16666667       0.007
   0.30000000  0.40000000  0.16666667       0.007
   0.40000000  0.40000000  0.16666667       0.007
   0.50000000  0.40000000  0.16666667       0.013
  -0.40000000  0.40000000  0.16666667       0.007
  -0.30000000  0.40000000  0.16666667       0.007
  -0.20000000  0.40000000  0.16666667       0.007
  -0.10000000  0.40000000  0.16666667       0.007
   0.00000000  0.50000000  0.16666667       0.003
   0.10000000  0.50000000  0.16666667       0.003
   0.20000000  0.50000000  0.16666667       0.003
   0.30000000  0.50000000  0.16666667       0.003
   0.40000000  0.50000000  0.16666667       0.003
   0.50000000  0.50000000  0.16666667       0.007
  -0.40000000  0.50000000  0.16666667       0.003
  -0.30000000  0.50000000  0.16666667       0.003
  -0.20000000  0.50000000  0.16666667       0.003
  -0.10000000  0.50000000  0.16666667       0.003
   0.00000000  0.00000000  0.33333333       0.003
   0.10000000  0.00000000  0.33333333       0.003
   0.20000000  0.00000000  0.33333333       0.003
   0.30000000  0.00000000  0.33333333       0.003
   0.40000000  0.00000000  0.33333333       0.003
  -0.40000000  0.00000000  0.33333333       0.003
  -0.30000000  0.00000000  0.33333333       0.003
  -0.20000000  0.00000000  0.33333333       0.003
  -0.10000000  0.00000000  0.33333333       0.003
   0.00000000  0.10000000  0.33333333       0.007
   0.10000000  0.10000000  0.33333333       0.007
   0.20000000  0.10000000  0.33333333       0.007
   0.30000000  0.10000000  0.33333333       0.007
   0.40000000  0.10000000  0.33333333       0.007
  -0.40000000  0.10000000  0.33333333       0.007
  -0.30000000  0.10000000  0.33333333       0.007
  -0.20000000  0.10000000  0.33333333       0.007
  -0.10000000  0.10000000  0.33333333       0.007
   0.00000000  0.20000000  0.33333333       0.007
   0.10000000  0.20000000  0.33333333       0.007
   0.20000000  0.20000000  0.33333333       0.007
   0.30000000  0.20000000  0.33333333       0.007
   0.40000000  0.20000000  0.33333333       0.007
  -0.40000000  0.20000000  0.33333333       0.007
  -0.30000000  0.20000000  0.33333333       0.007
  -0.20000000  0.20000000  0.33333333       0.007
  -0.10000000  0.20000000  0.33333333       0.007
   0.00000000  0.30000000  0.33333333       0.007
   0.10000000  0.30000000  0.33333333       0.007
   0.20000000  0.30000000  0.33333333       0.007
   0.30000000  0.30000000  0.33333333       0.007
   0.40000000  0.30000000  0.33333333       0.007
  -0.40000000  0.30000000  0.33333333       0.007
  -0.30000000  0.30000000  0.33333333       0.007
  -0.20000000  0.30000000  0.33333333       0.007
  -0.10000000  0.30000000  0.33333333       0.007
   0.00000000  0.40000000  0.33333333       0.007
   0.10000000  0.40000000  0.33333333       0.007
   0.20000000  0.40000000  0.33333333       0.007
   0.30000000  0.40000000  0.33333333       0.007
   0.40000000  0.40000000  0.33333333       0.007
  -0.40000000  0.40000000  0.33333333       0.007
  -0.30000000  0.40000000  0.33333333       0.007
  -0.20000000  0.40000000  0.33333333       0.007
  -0.10000000  0.40000000  0.33333333       0.007
   0.00000000  0.50000000  0.33333333       0.003
   0.10000000  0.50000000  0.33333333       0.003
   0.20000000  0.50000000  0.33333333       0.003
   0.30000000  0.50000000  0.33333333       0.003
   0.40000000  0.50000000  0.33333333       0.003
  -0.40000000  0.50000000  0.33333333       0.003
  -0.30000000  0.50000000  0.33333333       0.003
  -0.20000000  0.50000000  0.33333333       0.003
  -0.10000000  0.50000000  0.33333333       0.003
   0.10000000  0.00000000  0.50000000       0.007
   0.20000000  0.00000000  0.50000000       0.007
   0.10000000  0.10000000  0.50000000       0.013
   0.20000000  0.10000000  0.50000000       0.013
   0.10000000  0.20000000  0.50000000       0.013
   0.20000000  0.20000000  0.50000000       0.013
   0.10000000  0.30000000  0.50000000       0.013
   0.20000000  0.30000000  0.50000000       0.013
   0.10000000  0.40000000  0.50000000       0.013
   0.20000000  0.40000000  0.50000000       0.013
   0.10000000  0.50000000  0.50000000       0.007
   0.20000000  0.50000000  0.50000000       0.007
 
 position of ions in fractional coordinates (direct lattice) 
   0.66666600  0.74999996  0.66666699
   0.33333399  0.25000001  0.33333299
 
 position of ions in cartesian coordinates  (Angst):
   0.00000150  2.87730111  3.01169820
  -0.00000111  1.43865160  1.00389950
 


--------------------------------------------------------------------------------------------------------


 k-point  1 :   0.0000 0.0000 0.0000  plane waves:     579
 k-point  2 :   0.1000 0.0000-0.0000  plane waves:     584
 k-point  3 :   0.2000 0.0000 0.0000  plane waves:     586
 k-point  4 :   0.3000 0.0000 0.0000  plane waves:     586
 k-point  5 :   0.4000 0.0000 0.0000  plane waves:     580
 k-point  6 :   0.5000 0.0000 0.0000  plane waves:     584
 k-point  7 :   0.0000 0.1000 0.0000  plane waves:     585
 k-point  8 :   0.1000 0.1000-0.0000  plane waves:     582
 k-point  9 :   0.2000 0.1000 0.0000  plane waves:     588
 k-point 10 :   0.3000 0.1000 0.0000  plane waves:     585
 k-point 11 :   0.4000 0.1000 0.0000  plane waves:     581
 k-point 12 :   0.5000 0.1000 0.0000  plane waves:     578
 k-point 13 :   0.0000 0.2000 0.0000  plane waves:     585
 k-point 14 :   0.1000 0.2000-0.0000  plane waves:     584
 k-point 15 :   0.2000 0.2000 0.0000  plane waves:     585
 k-point 16 :   0.3000 0.2000 0.0000  plane waves:     585
 k-point 17 :   0.4000 0.2000 0.0000  plane waves:     580
 k-point 18 :   0.5000 0.2000 0.0000  plane waves:     580
 k-point 19 :   0.0000 0.3000 0.0000  plane waves:     579
 k-point 20 :   0.1000 0.3000-0.0000  plane waves:     589
 k-point 21 :   0.2000 0.3000 0.0000  plane waves:     588
 k-point 22 :   0.3000 0.3000 0.0000  plane waves:     581
 k-point 23 :   0.4000 0.3000 0.0000  plane waves:     577
 k-point 24 :   0.5000 0.3000 0.0000  plane waves:     578
 k-point 25 :   0.0000 0.4000 0.0000  plane waves:     591
 k-point 26 :   0.1000 0.4000-0.0000  plane waves:     590
 k-point 27 :   0.2000 0.4000 0.0000  plane waves:     584
 k-point 28 :   0.3000 0.4000 0.0000  plane waves:     584
 k-point 29 :   0.4000 0.4000 0.0000  plane waves:     583
 k-point 30 :   0.5000 0.4000 0.0000  plane waves:     586
 k-point 31 :   0.0000 0.5000 0.0000  plane waves:     590
 k-point 32 :   0.1000 0.5000-0.0000  plane waves:     588
 k-point 33 :   0.2000 0.5000 0.0000  plane waves:     588
 k-point 34 :   0.3000 0.5000 0.0000  plane waves:     582
 k-point 35 :   0.4000 0.5000 0.0000  plane waves:     578
 k-point 36 :   0.5000 0.5000 0.0000  plane waves:     588
 k-point 37 :   0.0000 0.0000 0.1667  plane waves:     586
 k-point 38 :   0.1000 0.0000 0.1667  plane waves:     580
 k-point 39 :   0.2000 0.0000 0.1667  plane waves:     584
 k-point 40 :   0.3000 0.0000 0.1667  plane waves:     588
 k-point 41 :   0.4000 0.0000 0.1667  plane waves:     583
 k-point 42 :   0.5000 0.0000 0.1667  plane waves:     579
 k-point 43 :  -0.4000 0.0000 0.1667  plane waves:     580
 k-point 44 :  -0.3000 0.0000 0.1667  plane waves:     591
 k-point 45 :  -0.2000 0.0000 0.1667  plane waves:     586
 k-point 46 :  -0.1000 0.0000 0.1667  plane waves:     588
 k-point 47 :   0.0000 0.1000 0.1667  plane waves:     584
 k-point 48 :   0.1000 0.1000 0.1667  plane waves:     582
 k-point 49 :   0.2000 0.1000 0.1667  plane waves:     585
 k-point 50 :   0.3000 0.1000 0.1667  plane waves:     587
 k-point 51 :   0.4000 0.1000 0.1667  plane waves:     585
 k-point 52 :   0.5000 0.1000 0.1667  plane waves:     582
 k-point 53 :  -0.4000 0.1000 0.1667  plane waves:     580
 k-point 54 :  -0.3000 0.1000 0.1667  plane waves:     584
 k-point 55 :  -0.2000 0.1000 0.1667  plane waves:     583
 k-point 56 :  -0.1000 0.1000 0.1667  plane waves:     590
 k-point 57 :   0.0000 0.2000 0.1667  plane waves:     585
 k-point 58 :   0.1000 0.2000 0.1667  plane waves:     584
 k-point 59 :   0.2000 0.2000 0.1667  plane waves:     588
 k-point 60 :   0.3000 0.2000 0.1667  plane waves:     586
 k-point 61 :   0.4000 0.2000 0.1667  plane waves:     583
 k-point 62 :   0.5000 0.2000 0.1667  plane waves:     580
 k-point 63 :  -0.4000 0.2000 0.1667  plane waves:     577
 k-point 64 :  -0.3000 0.2000 0.1667  plane waves:     582
 k-point 65 :  -0.2000 0.2000 0.1667  plane waves:     584
 k-point 66 :  -0.1000 0.2000 0.1667  plane waves:     589
 k-point 67 :   0.0000 0.3000 0.1667  plane waves:     586
 k-point 68 :   0.1000 0.3000 0.1667  plane waves:     586
 k-point 69 :   0.2000 0.3000 0.1667  plane waves:     587
 k-point 70 :   0.3000 0.3000 0.1667  plane waves:     586
 k-point 71 :   0.4000 0.3000 0.1667  plane waves:     582
 k-point 72 :   0.5000 0.3000 0.1667  plane waves:     581
 k-point 73 :  -0.4000 0.3000 0.1667  plane waves:     576
 k-point 74 :  -0.3000 0.3000 0.1667  plane waves:     582
 k-point 75 :  -0.2000 0.3000 0.1667  plane waves:     580
 k-point 76 :  -0.1000 0.3000 0.1667  plane waves:     583
 k-point 77 :   0.0000 0.4000 0.1667  plane waves:     584
 k-point 78 :   0.1000 0.4000 0.1667  plane waves:     590
 k-point 79 :   0.2000 0.4000 0.1667  plane waves:     585
 k-point 80 :   0.3000 0.4000 0.1667  plane waves:     582
 k-point 81 :   0.4000 0.4000 0.1667  plane waves:     576
 k-point 82 :   0.5000 0.4000 0.1667  plane waves:     576
 k-point 83 :  -0.4000 0.4000 0.1667  plane waves:     578
 k-point 84 :  -0.3000 0.4000 0.1667  plane waves:     576
 k-point 85 :  -0.2000 0.4000 0.1667  plane waves:     580
 k-point 86 :  -0.1000 0.4000 0.1667  plane waves:     582
 k-point 87 :   0.0000 0.5000 0.1667  plane waves:     592
 k-point 88 :   0.1000 0.5000 0.1667  plane waves:     588
 k-point 89 :   0.2000 0.5000 0.1667  plane waves:     588
 k-point 90 :   0.3000 0.5000 0.1667  plane waves:     572
 k-point 91 :   0.4000 0.5000 0.1667  plane waves:     572
 k-point 92 :   0.5000 0.5000 0.1667  plane waves:     576
 k-point 93 :  -0.4000 0.5000 0.1667  plane waves:     582
 k-point 94 :  -0.3000 0.5000 0.1667  plane waves:     572
 k-point 95 :  -0.2000 0.5000 0.1667  plane waves:     574
 k-point 96 :  -0.1000 0.5000 0.1667  plane waves:     578
 k-point 97 :   0.0000 0.0000 0.3333  plane waves:     592
 k-point 98 :   0.1000 0.0000 0.3333  plane waves:     590
 k-point 99 :   0.2000 0.0000 0.3333  plane waves:     588
 k-point ** :   0.3000 0.0000 0.3333  plane waves:     586
 k-point ** :   0.4000 0.0000 0.3333  plane waves:     591
 k-point ** :  -0.4000 0.0000 0.3333  plane waves:     569
 k-point ** :  -0.3000 0.0000 0.3333  plane waves:     565
 k-point ** :  -0.2000 0.0000 0.3333  plane waves:     576
 k-point ** :  -0.1000 0.0000 0.3333  plane waves:     588
 k-point ** :   0.0000 0.1000 0.3333  plane waves:     587
 k-point ** :   0.1000 0.1000 0.3333  plane waves:     586
 k-point ** :   0.2000 0.1000 0.3333  plane waves:     585
 k-point ** :   0.3000 0.1000 0.3333  plane waves:     586
 k-point ** :   0.4000 0.1000 0.3333  plane waves:     584
 k-point ** :  -0.4000 0.1000 0.3333  plane waves:     572
 k-point ** :  -0.3000 0.1000 0.3333  plane waves:     568
 k-point ** :  -0.2000 0.1000 0.3333  plane waves:     579
 k-point ** :  -0.1000 0.1000 0.3333  plane waves:     587
 k-point ** :   0.0000 0.2000 0.3333  plane waves:     580
 k-point ** :   0.1000 0.2000 0.3333  plane waves:     585
 k-point ** :   0.2000 0.2000 0.3333  plane waves:     584
 k-point ** :   0.3000 0.2000 0.3333  plane waves:     583
 k-point ** :   0.4000 0.2000 0.3333  plane waves:     581
 k-point ** :  -0.4000 0.2000 0.3333  plane waves:     572
 k-point ** :  -0.3000 0.2000 0.3333  plane waves:     570
 k-point ** :  -0.2000 0.2000 0.3333  plane waves:     576
 k-point ** :  -0.1000 0.2000 0.3333  plane waves:     582
 k-point ** :   0.0000 0.3000 0.3333  plane waves:     577
 k-point ** :   0.1000 0.3000 0.3333  plane waves:     584
 k-point ** :   0.2000 0.3000 0.3333  plane waves:     584
 k-point ** :   0.3000 0.3000 0.3333  plane waves:     579
 k-point ** :   0.4000 0.3000 0.3333  plane waves:     580
 k-point ** :  -0.4000 0.3000 0.3333  plane waves:     580
 k-point ** :  -0.3000 0.3000 0.3333  plane waves:     575
 k-point ** :  -0.2000 0.3000 0.3333  plane waves:     579
 k-point ** :  -0.1000 0.3000 0.3333  plane waves:     580
 k-point ** :   0.0000 0.4000 0.3333  plane waves:     582
 k-point ** :   0.1000 0.4000 0.3333  plane waves:     581
 k-point ** :   0.2000 0.4000 0.3333  plane waves:     581
 k-point ** :   0.3000 0.4000 0.3333  plane waves:     584
 k-point ** :   0.4000 0.4000 0.3333  plane waves:     577
 k-point ** :  -0.4000 0.4000 0.3333  plane waves:     573
 k-point ** :  -0.3000 0.4000 0.3333  plane waves:     568
 k-point ** :  -0.2000 0.4000 0.3333  plane waves:     578
 k-point ** :  -0.1000 0.4000 0.3333  plane waves:     578
 k-point ** :   0.0000 0.5000 0.3333  plane waves:     586
 k-point ** :   0.1000 0.5000 0.3333  plane waves:     580
 k-point ** :   0.2000 0.5000 0.3333  plane waves:     576
 k-point ** :   0.3000 0.5000 0.3333  plane waves:     584
 k-point ** :   0.4000 0.5000 0.3333  plane waves:     582
 k-point ** :  -0.4000 0.5000 0.3333  plane waves:     570
 k-point ** :  -0.3000 0.5000 0.3333  plane waves:     564
 k-point ** :  -0.2000 0.5000 0.3333  plane waves:     578
 k-point ** :  -0.1000 0.5000 0.3333  plane waves:     578
 k-point ** :   0.1000 0.0000 0.5000  plane waves:     575
 k-point ** :   0.2000 0.0000 0.5000  plane waves:     579
 k-point ** :   0.1000 0.1000 0.5000  plane waves:     578
 k-point ** :   0.2000 0.1000 0.5000  plane waves:     579
 k-point ** :   0.1000 0.2000 0.5000  plane waves:     582
 k-point ** :   0.2000 0.2000 0.5000  plane waves:     579
 k-point ** :   0.1000 0.3000 0.5000  plane waves:     581
 k-point ** :   0.2000 0.3000 0.5000  plane waves:     580
 k-point ** :   0.1000 0.4000 0.5000  plane waves:     578
 k-point ** :   0.2000 0.4000 0.5000  plane waves:     575
 k-point ** :   0.1000 0.5000 0.5000  plane waves:     580
 k-point ** :   0.2000 0.5000 0.5000  plane waves:     574

 maximum and minimum number of plane-waves per node :       160      131

 maximum number of plane-waves:       592
 maximum index in each direction: 
   IXMAX=    5   IYMAX=    7   IZMAX=    4
   IXMIN=   -5   IYMIN=   -7   IZMIN=   -5


 parallel 3D FFT for wavefunctions:
    minimum data exchange during FFTs selected (reduces bandwidth)
 parallel 3D FFT for charge:
    minimum data exchange during FFTs selected (reduces bandwidth)


 total amount of memory used by VASP MPI-rank0    40971. kBytes
=======================================================================

   base      :      30000. kBytes
   nonl-proj :       3737. kBytes
   fftplans  :        225. kBytes
   grid      :        519. kBytes
   one-center:         31. kBytes
   wavefun   :       6459. kBytes
 
     INWAV:  cpu time    0.0000: real time    0.0002
 Broyden mixing: mesh for mixing (old mesh)
   NGX =  9   NGY = 15   NGZ =  9
  (NGX  = 28   NGY  = 48   NGZ  = 28)
  gives a total of   1215 points

 initial charge density was supplied:
 charge density of overlapping atoms calculated
 number of electron      18.0000000 magnetization      -0.0000000
 keeping initial charge density in first step


--------------------------------------------------------------------------------------------------------


 Maximum index for augmentation-charges         1270 (set IRDMAX)


--------------------------------------------------------------------------------------------------------


 First call to EWALD:  gamma=   0.637
 Maximum number of real-space cells 3x 2x 3
 Maximum number of reciprocal cells 3x 4x 3

    FEWALD:  cpu time    0.0013: real time    0.0013


--------------------------------------- Iteration      1(   1)  ---------------------------------------


    POTLOK:  cpu time    0.0115: real time    0.0139
    SETDIJ:  cpu time    0.0063: real time    0.0063
     EDDAV:  cpu time    1.0388: real time    1.0517
 BZINTS: Fermi energy: 20.434234; 18.000000 electrons
         Band energy: 274.356686;  BLOECHL correction: -0.160442
       DOS:  cpu time    0.0879: real time    0.0881
    --------------------------------------------
      LOOP:  cpu time    1.1444: real time    1.1599

 eigenvalue-minimisations  :  9184
 total energy-change (2. order) : 0.8443567E+02  (-0.8612220E+03)
 number of electron      18.0000000 magnetization      -0.0000000
 augmentation part       18.0000000 magnetization      -0.0000000

 Free energy of the ion-electron system (eV)
  ---------------------------------------------------
  alpha Z        PSCENC =        78.46558650
  Ewald energy   TEWEN  =     -1524.13238577
  -Hartree energ DENC   =      -298.99172834
  -exchange      EXHF   =         0.00000000
  -V(xc)+E(xc)   XCENC  =        34.02356156
  PAW double counting   =      1441.45640252    -1547.47083236
  entropy T*S    EENTRO =         0.00000000
  eigenvalues    EBANDS =       274.35668556
  atomic energy  EATOM  =      1626.72837775
  Solvation  Ediel_sol  =         0.00000000
  ---------------------------------------------------
  free energy    TOTEN  =        84.43566741 eV

  energy without entropy =       84.43566741  energy(sigma->0) =       84.43566741


--------------------------------------------------------------------------------------------------------




--------------------------------------- Iteration      1(   2)  ---------------------------------------


     EDDAV:  cpu time    0.9992: real time    1.0018
 BZINTS: Fermi energy: 12.925335; 18.000000 electrons
         Band energy: 176.057509;  BLOECHL correction: -0.054531
       DOS:  cpu time    0.0864: real time    0.0866
    --------------------------------------------
      LOOP:  cpu time    1.0855: real time    1.0884

 eigenvalue-minimisations  :  9084
 total energy-change (2. order) :-0.9829918E+02  (-0.9195383E+02)
 number of electron      18.0000000 magnetization      -0.0000000
 augmentation part       18.0000000 magnetization      -0.0000000

 Free energy of the ion-electron system (eV)
  ---------------------------------------------------
  alpha Z        PSCENC =        78.46558650
  Ewald energy   TEWEN  =     -1524.13238577
  -Hartree energ DENC   =      -298.99172834
  -exchange      EXHF   =         0.00000000
  -V(xc)+E(xc)   XCENC  =        34.02356156
  PAW double counting   =      1441.45640252    -1547.47083236
  entropy T*S    EENTRO =         0.00000000
  eigenvalues    EBANDS =       176.05750914
  atomic energy  EATOM  =      1626.72837775
  Solvation  Ediel_sol  =         0.00000000
  ---------------------------------------------------
  free energy    TOTEN  =       -13.86350901 eV

  energy without entropy =      -13.86350901  energy(sigma->0) =      -13.86350901


--------------------------------------------------------------------------------------------------------




--------------------------------------- Iteration      1(   3)  ---------------------------------------


     EDDAV:  cpu time    1.1150: real time    1.1177
 BZINTS: Fermi energy: 12.763394; 18.000000 electrons
         Band energy: 173.852807;  BLOECHL correction: -0.052672
       DOS:  cpu time    0.0810: real time    0.0812
    --------------------------------------------
      LOOP:  cpu time    1.1960: real time    1.1989

 eigenvalue-minimisations  : 10290
 total energy-change (2. order) :-0.2204702E+01  (-0.2142447E+01)
 number of electron      18.0000000 magnetization      -0.0000000
 augmentation part       18.0000000 magnetization      -0.0000000

 Free energy of the ion-electron system (eV)
  ---------------------------------------------------
  alpha Z        PSCENC =        78.46558650
  Ewald energy   TEWEN  =     -1524.13238577
  -Hartree energ DENC   =      -298.99172834
  -exchange      EXHF   =         0.00000000
  -V(xc)+E(xc)   XCENC  =        34.02356156
  PAW double counting   =      1441.45640252    -1547.47083236
  entropy T*S    EENTRO =         0.00000000
  eigenvalues    EBANDS =       173.85280671
  atomic energy  EATOM  =      1626.72837775
  Solvation  Ediel_sol  =         0.00000000
  ---------------------------------------------------
  free energy    TOTEN  =       -16.06821144 eV

  energy without entropy =      -16.06821144  energy(sigma->0) =      -16.06821144


--------------------------------------------------------------------------------------------------------




--------------------------------------- Iteration      1(   4)  ---------------------------------------


     EDDAV:  cpu time    1.3463: real time    1.3499
 BZINTS: Fermi energy: 12.761896; 18.000000 electrons
         Band energy: 173.820681;  BLOECHL correction: -0.052684
       DOS:  cpu time    0.0805: real time    0.0807
    --------------------------------------------
      LOOP:  cpu time    1.4268: real time    1.4306

 eigenvalue-minimisations  : 13022
 total energy-change (2. order) :-0.3212588E-01  (-0.3212390E-01)
 number of electron      18.0000000 magnetization      -0.0000000
 augmentation part       18.0000000 magnetization      -0.0000000

 Free energy of the ion-electron system (eV)
  ---------------------------------------------------
  alpha Z        PSCENC =        78.46558650
  Ewald energy   TEWEN  =     -1524.13238577
  -Hartree energ DENC   =      -298.99172834
  -exchange      EXHF   =         0.00000000
  -V(xc)+E(xc)   XCENC  =        34.02356156
  PAW double counting   =      1441.45640252    -1547.47083236
  entropy T*S    EENTRO =         0.00000000
  eigenvalues    EBANDS =       173.82068083
  atomic energy  EATOM  =      1626.72837775
  Solvation  Ediel_sol  =         0.00000000
  ---------------------------------------------------
  free energy    TOTEN  =       -16.10033732 eV

  energy without entropy =      -16.10033732  energy(sigma->0) =      -16.10033732


--------------------------------------------------------------------------------------------------------




--------------------------------------- Iteration      1(   5)  ---------------------------------------


     EDDAV:  cpu time    1.1425: real time    1.1453
 BZINTS: Fermi energy: 12.761858; 18.000000 electrons
         Band energy: 173.820363;  BLOECHL correction: -0.052682
       DOS:  cpu time    0.0761: real time    0.0763
    CHARGE:  cpu time    0.0433: real time    0.0434
    MIXING:  cpu time    0.0003: real time    0.0003
    --------------------------------------------
      LOOP:  cpu time    1.2623: real time    1.2654

 eigenvalue-minimisations  : 10706
 total energy-change (2. order) :-0.3176792E-03  (-0.3177175E-03)
 number of electron      18.0000007 magnetization       0.0000000
 augmentation part        9.1026669 magnetization       0.0000000

 Broyden mixing:
  rms(total) = 0.14679E+01    rms(broyden)= 0.14679E+01
  rms(prec ) = 0.26843E+01
  weight for this iteration     100.00

 Free energy of the ion-electron system (eV)
  ---------------------------------------------------
  alpha Z        PSCENC =        78.46558650
  Ewald energy   TEWEN  =     -1524.13238577
  -Hartree energ DENC   =      -298.99172834
  -exchange      EXHF   =         0.00000000
  -V(xc)+E(xc)   XCENC  =        34.02356156
  PAW double counting   =      1441.45640252    -1547.47083236
  entropy T*S    EENTRO =         0.00000000
  eigenvalues    EBANDS =       173.82036315
  atomic energy  EATOM  =      1626.72837775
  Solvation  Ediel_sol  =         0.00000000
  ---------------------------------------------------
  free energy    TOTEN  =       -16.10065500 eV

  energy without entropy =      -16.10065500  energy(sigma->0) =      -16.10065500


--------------------------------------------------------------------------------------------------------




--------------------------------------- Iteration      1(   6)  ---------------------------------------


    POTLOK:  cpu time    0.0066: real time    0.0070
    SETDIJ:  cpu time    0.0056: real time    0.0056
     EDDAV:  cpu time    0.9700: real time    0.9742
 BZINTS: Fermi energy:  9.300044; 18.000000 electrons
         Band energy: 128.499557;  BLOECHL correction: -0.043968
       DOS:  cpu time    0.0786: real time    0.0790
    CHARGE:  cpu time    0.0418: real time    0.0421
    MIXING:  cpu time    0.0004: real time    0.0004
    --------------------------------------------
      LOOP:  cpu time    1.1029: real time    1.1083

 eigenvalue-minimisations  :  9390
 total energy-change (2. order) : 0.2005595E+01  (-0.1588306E+01)
 number of electron      18.0000008 magnetization      -0.0000000
 augmentation part       10.7573614 magnetization      -0.0000000

 Broyden mixing:
  rms(total) = 0.63620E+00    rms(broyden)= 0.63617E+00
  rms(prec ) = 0.94852E+00
  weight for this iteration     100.00

 eigenvalues of (default mixing * dielectric matrix)
  average eigenvalue GAMMA=   0.7624
  0.7624

 Free energy of the ion-electron system (eV)
  ---------------------------------------------------
  alpha Z        PSCENC =        78.46558650
  Ewald energy   TEWEN  =     -1524.13238577
  -Hartree energ DENC   =      -260.68528697
  -exchange      EXHF   =         0.00000000
  -V(xc)+E(xc)   XCENC  =        31.88801098
  PAW double counting   =      1581.48914420    -1676.34806342
  entropy T*S    EENTRO =         0.00000000
  eigenvalues    EBANDS =       128.49955692
  atomic energy  EATOM  =      1626.72837775
  Solvation  Ediel_sol  =         0.00000000
  ---------------------------------------------------
  free energy    TOTEN  =       -14.09505981 eV

  energy without entropy =      -14.09505981  energy(sigma->0) =      -14.09505981


--------------------------------------------------------------------------------------------------------




--------------------------------------- Iteration      1(   7)  ---------------------------------------


    POTLOK:  cpu time    0.0060: real time    0.0062
    SETDIJ:  cpu time    0.0049: real time    0.0049
     EDDAV:  cpu time    1.0031: real time    1.0057
 BZINTS: Fermi energy: 10.473886; 18.000000 electrons
         Band energy: 144.599683;  BLOECHL correction: -0.045798
       DOS:  cpu time    0.0804: real time    0.0806
    CHARGE:  cpu time    0.0454: real time    0.0455
    MIXING:  cpu time    0.0003: real time    0.0003
    --------------------------------------------
      LOOP:  cpu time    1.1401: real time    1.1433

 eigenvalue-minimisations  :  9876
 total energy-change (2. order) : 0.4427981E+00  (-0.2233409E+00)
 number of electron      18.0000007 magnetization       0.0000000
 augmentation part       10.1744138 magnetization       0.0000000

 Broyden mixing:
  rms(total) = 0.27271E+00    rms(broyden)= 0.27270E+00
  rms(prec ) = 0.36114E+00
  weight for this iteration     100.00

 eigenvalues of (default mixing * dielectric matrix)
  average eigenvalue GAMMA=   0.7972
  1.0756  0.5188

 Free energy of the ion-electron system (eV)
  ---------------------------------------------------
  alpha Z        PSCENC =        78.46558650
  Ewald energy   TEWEN  =     -1524.13238577
  -Hartree energ DENC   =      -269.68848826
  -exchange      EXHF   =         0.00000000
  -V(xc)+E(xc)   XCENC  =        32.40217147
  PAW double counting   =      1656.64205787    -1758.66926384
  entropy T*S    EENTRO =         0.00000000
  eigenvalues    EBANDS =       144.59968254
  atomic energy  EATOM  =      1626.72837775
  Solvation  Ediel_sol  =         0.00000000
  ---------------------------------------------------
  free energy    TOTEN  =       -13.65226174 eV

  energy without entropy =      -13.65226174  energy(sigma->0) =      -13.65226174


--------------------------------------------------------------------------------------------------------




--------------------------------------- Iteration      1(   8)  ---------------------------------------


    POTLOK:  cpu time    0.0063: real time    0.0064
    SETDIJ:  cpu time    0.0049: real time    0.0049
     EDDAV:  cpu time    1.3980: real time    1.4014
 BZINTS: Fermi energy: 10.389894; 18.000000 electrons
         Band energy: 143.500998;  BLOECHL correction: -0.045658
       DOS:  cpu time    0.0851: real time    0.0853
    CHARGE:  cpu time    0.0441: real time    0.0443
    MIXING:  cpu time    0.0004: real time    0.0004
    --------------------------------------------
      LOOP:  cpu time    1.5387: real time    1.5426

 eigenvalue-minimisations  : 13758
 total energy-change (2. order) : 0.2508596E-01  (-0.1744012E-02)
 number of electron      18.0000007 magnetization       0.0000000
 augmentation part       10.2100013 magnetization       0.0000000

 Broyden mixing:
  rms(total) = 0.12005E+00    rms(broyden)= 0.12005E+00
  rms(prec ) = 0.17607E+00
  weight for this iteration     100.00

 eigenvalues of (default mixing * dielectric matrix)
  average eigenvalue GAMMA=   0.9965
  1.6992  0.6451  0.6451

 Free energy of the ion-electron system (eV)
  ---------------------------------------------------
  alpha Z        PSCENC =        78.46558650
  Ewald energy   TEWEN  =     -1524.13238577
  -Hartree energ DENC   =      -266.96856917
  -exchange      EXHF   =         0.00000000
  -V(xc)+E(xc)   XCENC  =        32.24704127
  PAW double counting   =      1716.52439003    -1819.99261440
  entropy T*S    EENTRO =         0.00000000
  eigenvalues    EBANDS =       143.50099801
  atomic energy  EATOM  =      1626.72837775
  Solvation  Ediel_sol  =         0.00000000
  ---------------------------------------------------
  free energy    TOTEN  =       -13.62717578 eV

  energy without entropy =      -13.62717578  energy(sigma->0) =      -13.62717578


--------------------------------------------------------------------------------------------------------




--------------------------------------- Iteration      1(   9)  ---------------------------------------


    POTLOK:  cpu time    0.0062: real time    0.0063
    SETDIJ:  cpu time    0.0054: real time    0.0055
     EDDAV:  cpu time    1.2852: real time    1.2897
 BZINTS: Fermi energy: 10.326157; 18.000000 electrons
         Band energy: 142.675874;  BLOECHL correction: -0.045511
       DOS:  cpu time    0.0844: real time    0.0846
    CHARGE:  cpu time    0.0445: real time    0.0446
    MIXING:  cpu time    0.0004: real time    0.0004
    --------------------------------------------
      LOOP:  cpu time    1.4261: real time    1.4311

 eigenvalue-minimisations  : 12148
 total energy-change (2. order) : 0.1046382E-01  (-0.3837098E-03)
 number of electron      18.0000007 magnetization       0.0000000
 augmentation part       10.2403595 magnetization       0.0000000

 Broyden mixing:
  rms(total) = 0.35311E-01    rms(broyden)= 0.35310E-01
  rms(prec ) = 0.55853E-01
  weight for this iteration     100.00

 eigenvalues of (default mixing * dielectric matrix)
  average eigenvalue GAMMA=   1.1488
  2.2557  1.0249  0.6906  0.6239

 Free energy of the ion-electron system (eV)
  ---------------------------------------------------
  alpha Z        PSCENC =        78.46558650
  Ewald energy   TEWEN  =     -1524.13238577
  -Hartree energ DENC   =      -264.92298764
  -exchange      EXHF   =         0.00000000
  -V(xc)+E(xc)   XCENC  =        32.13975721
  PAW double counting   =      1759.38837476    -1863.95930841
  entropy T*S    EENTRO =         0.00000000
  eigenvalues    EBANDS =       142.67587363
  atomic energy  EATOM  =      1626.72837775
  Solvation  Ediel_sol  =         0.00000000
  ---------------------------------------------------
  free energy    TOTEN  =       -13.61671196 eV

  energy without entropy =      -13.61671196  energy(sigma->0) =      -13.61671196


--------------------------------------------------------------------------------------------------------




--------------------------------------- Iteration      1(  10)  ---------------------------------------


    POTLOK:  cpu time    0.0066: real time    0.0071
    SETDIJ:  cpu time    0.0057: real time    0.0057
     EDDAV:  cpu time    1.4071: real time    1.4104
 BZINTS: Fermi energy: 10.304044; 18.000000 electrons
         Band energy: 142.400291;  BLOECHL correction: -0.045483
       DOS:  cpu time    0.0834: real time    0.0836
    CHARGE:  cpu time    0.0444: real time    0.0445
    MIXING:  cpu time    0.0004: real time    0.0004
    --------------------------------------------
      LOOP:  cpu time    1.5476: real time    1.5517

 eigenvalue-minimisations  : 13596
 total energy-change (2. order) : 0.1975601E-02  (-0.7072696E-04)
 number of electron      18.0000007 magnetization      -0.0000000
 augmentation part       10.2509852 magnetization      -0.0000000

 Broyden mixing:
  rms(total) = 0.79248E-02    rms(broyden)= 0.79246E-02
  rms(prec ) = 0.80795E-02
  weight for this iteration     100.00

 eigenvalues of (default mixing * dielectric matrix)
  average eigenvalue GAMMA=   1.1532
  2.4072  1.2613  0.8057  0.6459  0.6459

 Free energy of the ion-electron system (eV)
  ---------------------------------------------------
  alpha Z        PSCENC =        78.46558650
  Ewald energy   TEWEN  =     -1524.13238577
  -Hartree energ DENC   =      -263.69899968
  -exchange      EXHF   =         0.00000000
  -V(xc)+E(xc)   XCENC  =        32.07281244
  PAW double counting   =      1789.02995733    -1894.48037618
  entropy T*S    EENTRO =         0.00000000
  eigenvalues    EBANDS =       142.40029124
  atomic energy  EATOM  =      1626.72837775
  Solvation  Ediel_sol  =         0.00000000
  ---------------------------------------------------
  free energy    TOTEN  =       -13.61473636 eV

  energy without entropy =      -13.61473636  energy(sigma->0) =      -13.61473636


[...]
  band No.  band energies     occupation 
      1       5.8632      1.00000
      2       6.2945      1.00000
      3       6.6384      1.00000
      4       7.6097      1.00000
      5       8.1259      1.00000
      6       8.7782      1.00000
      7       8.9207      1.00000
      8      10.1249      1.00000
      9      10.5537      0.01681
     10      10.7851      0.00000
     11      12.0497      0.00000
     12      14.9880      0.00000
     13      19.2817      0.00000
     14      21.1361      0.00000

 k-point   154 :       0.2000    0.1000    0.5000
  band No.  band energies     occupation 
      1       6.1071      1.00000
      2       6.5756      1.00000
      3       6.7216      1.00000
      4       7.2571      1.00000
      5       7.9259      1.00000
      6       8.6343      1.00000
      7       8.9533      1.00000
      8       9.9483      1.00000
      9      10.3676      0.37562
     10      10.5261      0.00000
     11      12.1557      0.00000
     12      16.8693      0.00000
     13      18.9503      0.00000
     14      20.4687      0.00000

 k-point   155 :       0.1000    0.2000    0.5000
  band No.  band energies     occupation 
      1       5.7727      1.00000
      2       6.2837      1.00000
      3       6.9172      1.00000
      4       7.3899      1.00000
      5       8.1629      1.00000
      6       8.8799      1.00000
      7       9.2149      1.00000
      8      10.1284      1.00000
      9      10.4306      0.14515
     10      10.7363     -0.00210
     11      12.0125      0.00000
     12      14.6269      0.00000
     13      18.5426      0.00000
     14      20.6866      0.00000

 k-point   156 :       0.2000    0.2000    0.5000
  band No.  band energies     occupation 
      1       6.0841      1.00000
      2       6.5978      1.00000
      3       6.8126      1.00000
      4       7.3486      1.00000
      5       7.9747      1.00000
      6       8.5261      1.00000
      7       9.0296      1.00000
      8       9.9432      1.00000
      9      10.1818      0.98607
     10      10.5897     -0.00067
     11      12.2482      0.00000
     12      15.9753      0.00000
     13      18.7748      0.00000
     14      20.8782      0.00000

 k-point   157 :       0.1000    0.3000    0.5000
  band No.  band energies     occupation 
      1       5.7396      1.00000
      2       6.2277      1.00000
      3       7.0058      1.00000
      4       7.4820      1.00000
      5       8.1979      1.00000
      6       8.9597      1.00000
      7       9.5335      1.00000
      8       9.9432      1.00000
      9      10.4793     -0.01463
     10      10.6612     -0.00216
     11      12.0162      0.00000
     12      14.0236      0.00000
     13      18.2083      0.00000
     14      19.8812      0.00000

 k-point   158 :       0.2000    0.3000    0.5000
  band No.  band energies     occupation 
      1       6.0923      1.00000
      2       6.5353      1.00000
      3       6.9717      1.00000
      4       7.5546      1.00000
      5       7.9454      1.00000
      6       8.4124      1.00000
      7       9.1222      1.00000
      8       9.7753      1.00000
      9      10.1557      1.01272
     10      10.6652     -0.00218
     11      12.4004      0.00000
     12      14.8930      0.00000
     13      19.0487      0.00000
     14      21.2786      0.00000

 k-point   159 :       0.1000    0.4000    0.5000
  band No.  band energies     occupation 
      1       5.7850      1.00000
      2       6.0788      1.00000
      3       7.0654      1.00000
      4       7.5819      1.00000
      5       8.3632      1.00000
      6       9.0120      1.00000
      7       9.6820      1.00000
      8       9.7841      1.00000
      9      10.4044      0.03001
     10      10.7437     -0.00189
     11      12.1908      0.00000
     12      13.3144      0.00000
     13      18.2491      0.00000
     14      19.1511      0.00000

 k-point   160 :       0.2000    0.4000    0.5000
  band No.  band energies     occupation 
      1       6.1349      1.00000
      2       6.4355      1.00000
      3       7.1555      1.00000
      4       7.7972      1.00000
      5       7.8455      1.00000
      6       8.2959      1.00000
      7       9.2048      1.00000
      8       9.5147      1.00000
      9      10.2901      0.80768
     10      10.7223     -0.00061
     11      12.6632      0.00000
     12      13.9216      0.00000
     13      19.5491      0.00000
     14      20.9520      0.00000

 k-point   161 :       0.1000    0.5000    0.5000
  band No.  band energies     occupation 
      1       5.8785      1.00000
      2       5.9381      1.00000
      3       7.1183      1.00000
      4       7.5679      1.00000
      5       8.5392      1.00000
      6       8.9566      1.00000
      7       9.6052      1.00000
      8       9.9051      1.00000
      9      10.2760      0.76866
     10      10.8138      0.00000
     11      12.5462      0.00000
     12      12.7560      0.00000
     13      18.4994      0.00000
     14      18.6755      0.00000

 k-point   162 :       0.2000    0.5000    0.5000
  band No.  band energies     occupation 
      1       6.1704      1.00000
      2       6.3774      1.00000
      3       7.2590      1.00000
      4       7.7351      1.00000
      5       8.0056      1.00000
      6       8.1817      1.00000
      7       9.2879      1.00000
      8       9.3477      1.00000
      9      10.3673      0.06596
     10      10.7431      0.00000
     11      13.0293      0.00000
     12      13.2866      0.00000
     13      20.1198      0.00000
     14      20.3012      0.00000


--------------------------------------------------------------------------------------------------------


 soft charge-density along one line, spin component           1
         0         1         2         3         4         5         6         7         8         9
 total charge-density along one line
 
 soft charge-density along one line, spin component           2
         0         1         2         3         4         5         6         7         8         9
 total charge-density along one line
 
 pseudopotential strength for first ion, spin component:           1
 -0.329  -0.000  -0.000  -0.000   0.000  -0.975  -0.000  -0.000
 -0.000  -0.368  -0.000   0.000   0.000  -0.000  -1.013  -0.000
 -0.000  -0.000  -0.331  -0.000   0.000  -0.000  -0.000  -0.977
 -0.000   0.000  -0.000  -0.368  -0.000  -0.000   0.000  -0.000
  0.000   0.000   0.000  -0.000  -0.329   0.000   0.000   0.000
 -0.975  -0.000  -0.000  -0.000   0.000  -1.561  -0.000  -0.000
 -0.000  -1.013  -0.000   0.000   0.000  -0.000  -1.598  -0.000
 -0.000  -0.000  -0.977  -0.000   0.000  -0.000  -0.000  -1.564
 -0.000   0.000  -0.000  -1.013  -0.000  -0.000   0.000  -0.000
  0.000   0.000   0.000  -0.000  -0.975   0.000   0.000   0.000
 -0.000   0.000   0.000   0.000   0.000  -0.000   0.000  -0.000
 -0.000   0.000  -0.000   0.000   0.000  -0.000   0.000  -0.001
  0.000  -0.000   0.000   0.000   0.001   0.000  -0.000   0.000
  0.000  -0.000  -0.000   0.000   0.000   0.000  -0.000  -0.000
  0.001   0.000  -0.000  -0.000   0.000   0.001   0.000  -0.000
  0.000  -0.000   0.000   0.000   0.000   0.000  -0.000   0.000
  0.000  -0.000  -0.000   0.000   0.000   0.000  -0.000  -0.000
  0.000   0.000  -0.000  -0.000   0.000   0.000   0.000  -0.000
 pseudopotential strength for first ion, spin component:           2
  0.453  -0.000  -0.000  -0.000   0.000  -0.225  -0.000  -0.000
 -0.000   0.383  -0.000   0.000   0.000  -0.000  -0.293  -0.000
 -0.000  -0.000   0.343  -0.000   0.000  -0.000  -0.000  -0.331
 -0.000   0.000  -0.000   0.383  -0.000  -0.000   0.000  -0.000
  0.000   0.000   0.000  -0.000   0.453   0.000   0.000   0.000
 -0.225  -0.000  -0.000  -0.000   0.000  -0.843  -0.000  -0.000
 -0.000  -0.293  -0.000   0.000   0.000  -0.000  -0.908  -0.000
 -0.000  -0.000  -0.331  -0.000   0.000  -0.000  -0.000  -0.945
 -0.000   0.000  -0.000  -0.293  -0.000  -0.000   0.000  -0.000
  0.000   0.000   0.000  -0.000  -0.225   0.000   0.000   0.000
 -0.000   0.000   0.014   0.000   0.000  -0.000   0.000   0.014
 -0.000   0.000   0.026   0.000   0.000  -0.000   0.000   0.025
  0.000  -0.000   0.000   0.000   0.002   0.000  -0.000   0.000
  0.000  -0.000  -0.000   0.000   0.000   0.000  -0.000  -0.000
  0.002   0.000  -0.000  -0.000   0.000   0.002   0.000  -0.000
  0.000  -0.000   0.000   0.000   0.002   0.000  -0.000   0.000
  0.000  -0.000  -0.000   0.000   0.000   0.000  -0.000  -0.000
  0.002   0.000  -0.000  -0.000   0.000   0.002   0.000  -0.000
 total augmentation occupancy for first ion, spin component:           1
  2.723   0.000  -0.000   0.000   0.000  -1.381  -0.000   0.000   0.000  -0.000   0.000  -0.000   0.000   0.000  -0.028  -0.000
 -0.000   2.417  -0.000   0.000   0.000   0.000  -1.163  -0.000  -0.000   0.000   0.000  -0.000  -0.000   0.000  -0.000   0.000
 -0.000  -0.000   2.577  -0.000  -0.000   0.000   0.000  -1.299  -0.000   0.000  -0.063   0.004   0.000  -0.000   0.000  -0.000
 -0.000   0.000   0.000   2.417   0.000   0.000  -0.000   0.000  -1.163  -0.000  -0.000  -0.000   0.000   0.000   0.000   0.000
  0.000  -0.000  -0.000   0.000   2.723  -0.000  -0.000   0.000   0.000  -1.381   0.000  -0.000  -0.028  -0.000  -0.000   0.003
 -1.381  -0.000   0.000   0.000  -0.000   1.618   0.000  -0.000   0.000   0.000  -0.000  -0.000  -0.000  -0.000   0.049   0.000
  0.000  -1.163  -0.000  -0.000   0.000  -0.000   1.422  -0.000   0.000   0.000   0.000   0.000   0.000  -0.000  -0.000   0.000
  0.000  -0.000  -1.299  -0.000   0.000  -0.000  -0.000   1.609  -0.000  -0.000   0.043   0.001  -0.000  -0.000  -0.000   0.000
 -0.000  -0.000  -0.000  -1.163   0.000   0.000   0.000   0.000   1.422   0.000  -0.000   0.000  -0.000  -0.000   0.000   0.000
 -0.000   0.000   0.000  -0.000  -1.381   0.000   0.000  -0.000  -0.000   1.618  -0.000  -0.000   0.049   0.000   0.000  -0.004
  0.000   0.000  -0.063  -0.000   0.000  -0.000   0.000   0.043  -0.000  -0.000   2.259  -0.258  -0.000   0.000   0.000   0.000
 -0.000   0.000   0.004   0.000  -0.000  -0.000   0.000   0.001  -0.000  -0.000  -0.258   0.036   0.000   0.000  -0.000  -0.000
  0.000  -0.000   0.000   0.000  -0.028  -0.000  -0.000  -0.000   0.000   0.049  -0.000   0.000   0.310   0.000   0.000  -0.030
  0.000   0.000  -0.000   0.000  -0.000   0.000   0.000   0.000  -0.000   0.000  -0.000  -0.000  -0.000   0.320   0.000   0.000
 -0.028  -0.000   0.000   0.000  -0.000   0.049   0.000  -0.000  -0.000   0.000   0.000  -0.000   0.000  -0.000   0.310  -0.000
 -0.000  -0.000  -0.000   0.000   0.003   0.000   0.000   0.000  -0.000  -0.004   0.000  -0.000  -0.030  -0.000  -0.000   0.003
 -0.000  -0.000   0.000  -0.000   0.000   0.000   0.000   0.000   0.000  -0.000  -0.000   0.000  -0.000  -0.030   0.000   0.000
  0.003  -0.000  -0.000   0.000   0.000  -0.004  -0.000   0.000  -0.000  -0.000  -0.000   0.000  -0.000   0.000  -0.030   0.000
 total augmentation occupancy for first ion, spin component:           2
  1.394   0.000  -0.000   0.000   0.000  -0.709   0.000   0.000  -0.000  -0.000  -0.000   0.000  -0.000  -0.000   0.020   0.000
  0.000   0.768   0.000   0.000   0.000  -0.000  -0.265   0.000  -0.000  -0.000   0.000  -0.000  -0.000   0.000   0.000  -0.000
 -0.000  -0.000   0.855   0.000  -0.000   0.000   0.000  -0.422   0.000   0.000   0.009  -0.008  -0.000  -0.000  -0.000   0.000
 -0.000   0.000  -0.000   0.768  -0.000  -0.000  -0.000   0.000  -0.265   0.000  -0.000   0.000  -0.000   0.000  -0.000   0.000
  0.000  -0.000  -0.000   0.000   1.394  -0.000  -0.000   0.000   0.000  -0.709  -0.000   0.000   0.020   0.000   0.000  -0.001
 -0.709   0.000   0.000   0.000  -0.000   0.264  -0.000  -0.000   0.000   0.000  -0.000  -0.000   0.000  -0.000  -0.015  -0.000
  0.000  -0.265   0.000  -0.000   0.000   0.000  -0.022  -0.000  -0.000  -0.000  -0.000   0.000  -0.000  -0.000   0.000  -0.000
  0.000  -0.000  -0.422   0.000   0.000  -0.000   0.000   0.139  -0.000  -0.000   0.014   0.009   0.000   0.000   0.000  -0.000
  0.000  -0.000   0.000  -0.265   0.000  -0.000  -0.000   0.000  -0.022   0.000  -0.000  -0.000  -0.000   0.000  -0.000  -0.000
 -0.000  -0.000   0.000   0.000  -0.709   0.000   0.000  -0.000  -0.000   0.264  -0.000  -0.000  -0.015  -0.000  -0.000   0.001
 -0.000  -0.000   0.009   0.000  -0.000  -0.000   0.000   0.014  -0.000  -0.000  -0.125   0.046  -0.000  -0.000   0.000   0.000
  0.000  -0.000  -0.008   0.000   0.000  -0.000  -0.000   0.009  -0.000  -0.000   0.046  -0.009   0.000  -0.000   0.000   0.000
 -0.000  -0.000  -0.000  -0.000   0.020   0.000  -0.000   0.000   0.000  -0.015  -0.000  -0.000  -0.007   0.000  -0.000   0.002
  0.000   0.000  -0.000  -0.000   0.000  -0.000  -0.000  -0.000  -0.000  -0.000  -0.000  -0.000   0.000   0.007  -0.000   0.000
  0.020  -0.000  -0.000   0.000   0.000  -0.015   0.000   0.000   0.000  -0.000   0.000   0.000  -0.000  -0.000  -0.007   0.000
  0.000   0.000   0.000   0.000  -0.001  -0.000  -0.000  -0.000  -0.000   0.001  -0.000   0.000   0.002   0.000   0.000  -0.000
  0.000   0.000  -0.000   0.000   0.000   0.000  -0.000   0.000  -0.000  -0.000  -0.000  -0.000  -0.000   0.003  -0.000  -0.000
 -0.001  -0.000   0.000   0.000  -0.000   0.001   0.000  -0.000   0.000   0.000  -0.000  -0.000   0.000   0.000   0.002  -0.000


------------------------ aborting loop because EDIFF is reached ----------------------------------------


 


 total charge     
 
# of ion       s       p       d       tot
------------------------------------------
    1        0.486   0.523   7.272   8.281
    2        0.486   0.523   7.272   8.281
--------------------------------------------------
tot          0.973   1.046  14.543  16.562
 


 magnetization (x)
 
# of ion       s       p       d       tot
------------------------------------------
    1        0.001   0.005   0.964   0.970
    2       -0.001  -0.005  -0.964  -0.970
--------------------------------------------------
tot         -0.000   0.000  -0.000  -0.000
 
    CHARGE:  cpu time    0.0439: real time    0.0440
    FORLOC:  cpu time    0.0001: real time    0.0001
    FORNL :  cpu time    0.1123: real time    0.1125
    STRESS:  cpu time    0.2226: real time    0.2231
    FORCOR:  cpu time    0.0060: real time    0.0060
    FORHAR:  cpu time    0.0007: real time    0.0007
    MIXING:  cpu time    0.0004: real time    0.0004
    OFIELD:  cpu time    0.0000: real time    0.0000

  FORCE on cell =-STRESS in cart. coord.  units (eV):
  Direction    XX          YY          ZZ          XY          YZ          ZX
  --------------------------------------------------------------------------------------
  Alpha Z    78.46559    78.46559    78.46559
  Ewald    -511.15612  -511.15583  -501.82149     0.00015     0.00000    -0.00000
  Hartree    86.85826    86.85833    89.97887     0.00006    -0.00000    -0.00000
  E(xc)     -91.89603   -91.89609   -91.84092    -0.00000     0.00000    -0.00000
  Local     -16.33866   -16.33851   -25.53475    -0.00020    -0.00000    -0.00000
  n-local   -11.88833    -9.26454   -10.55876     0.45048     1.71884     0.36691
  augment   310.99676   310.99635   308.87114     0.00001     0.00000    -0.00000
  Kinetic   153.51073   151.99483   151.90519     0.02189    -0.53108    -0.06869
  Fock        0.00000     0.00000     0.00000     0.00000     0.00000     0.00000
  -------------------------------------------------------------------------------------
  Total      -0.89384    -0.89384    -0.53514    -0.00000    -0.00000     0.00000
  in kB     -66.32208   -66.32205   -39.70676    -0.00001    -0.00000     0.00000
  external pressure =      -57.45 kB  Pullay stress =        0.00 kB


 VOLUME and BASIS-vectors are now :
 -----------------------------------------------------------------------------
  energy-cutoff  :      520.00
  volume of cell :       21.59
      direct lattice vectors                 reciprocal lattice vectors
    -1.245908300  2.157976400  0.000000000    -0.401313580  0.231698586  0.000000000
     0.000000000  0.000000000  4.015597800     0.000000000  0.000000000  0.249028924
     1.245908700  2.157976400  0.000000000     0.401313580  0.231698512  0.000000000

  length of vectors
     2.491816533  4.015597800  2.491816733     0.463397048  0.249028924  0.463397011


 FORCES acting on ions
    electron-ion (+dipol)            ewald-force                    non-local-force                 convergence-correction
 -----------------------------------------------------------------------------------------------
   0.850E-04 -.434E-04 -.722E-04   -.752E-04 0.607E-04 0.121E-03   0.195E-17 -.499E-17 0.477E-17   0.307E-07 -.310E-07 -.421E-06
   -.676E-04 0.722E-04 0.708E-04   0.752E-04 -.607E-04 -.121E-03   0.239E-17 0.499E-17 0.434E-18   -.393E-07 0.155E-07 0.420E-06
 -----------------------------------------------------------------------------------------------
   0.174E-04 0.288E-04 -.141E-05   0.546E-14 -.912E-14 0.331E-16   0.434E-17 0.000E+00 0.520E-17   -.865E-08 -.155E-07 -.580E-09
 
 
 POSITION                                       TOTAL-FORCE (eV/Angst)
 -----------------------------------------------------------------------------------
      0.00000      2.87730      3.01170         0.000000      0.000000      0.000000
     -0.00000      1.43865      1.00390        -0.000000     -0.000000      0.000000
 -----------------------------------------------------------------------------------
    total drift:                                0.000017      0.000029     -0.000001


--------------------------------------------------------------------------------------------------------



  FREE ENERGIE OF THE ION-ELECTRON SYSTEM (eV)
  ---------------------------------------------------
  free  energy   TOTEN  =       -13.61475028 eV

  energy  without entropy=      -13.61475028  energy(sigma->0) =      -13.61475028
 


--------------------------------------------------------------------------------------------------------


    POTLOK:  cpu time    0.0110: real time    0.0110


--------------------------------------------------------------------------------------------------------


     LOOP+:  cpu time   17.3107: real time   17.3732
    4ORBIT:  cpu time    0.0000: real time    0.0000
 


 total charge     
 
# of ion       s       p       d       tot
------------------------------------------
    1        0.486   0.523   7.272   8.281
    2        0.486   0.523   7.272   8.281
--------------------------------------------------
tot          0.973   1.046  14.543  16.562
 


 magnetization (x)
 
# of ion       s       p       d       tot
------------------------------------------
    1        0.001   0.005   0.964   0.970
    2       -0.001  -0.005  -0.964  -0.970
--------------------------------------------------
tot         -0.000   0.000  -0.000  -0.000
 
 BZINTS: Fermi energy: 10.302446; 18.000000 electrons
         Band energy: 142.386120;  BLOECHL correction: -0.045491

 total amount of memory used by VASP MPI-rank0    40971. kBytes
=======================================================================

   base      :      30000. kBytes
   nonl-proj :       3737. kBytes
   fftplans  :        225. kBytes
   grid      :        519. kBytes
   one-center:         31. kBytes
   wavefun   :       6459. kBytes
 
  
  
 General timing and accounting informations for this job:
 ========================================================
  
                  Total CPU time used (sec):       18.870
                            User time (sec):       18.669
                          System time (sec):        0.201
                         Elapsed time (sec):       19.598
  
                   Maximum memory used (kb):       62076.
                   Average memory used (kb):           0.
  
                          Minor page faults:        13900
                          Major page faults:            0
                 Voluntary context switches:         1348
