unknown system                          
   1.00000000000000     
     1.420026    1.420026    1.420026
     1.420026   -1.420026   -1.420026
     0.000000    5.680104   -5.680104
   Fe
     4
Direct
  0.000000  0.000000  0.500000
  0.500000  0.500000  0.750000
  0.000000  0.000000  0.000000
  0.500000  0.500000  0.250000
 
   36   36  120
 0.23077857732E+04 0.34407495911E+04 0.57383538123E+03 0.77425616894E+03 0.97968633535E+03
 0.82853806725E+03 0.58071313277E+03 0.37400112054E+03 0.23339950865E+03 0.14563534342E+03
 0.92843337730E+02 0.61494604131E+02 0.42875861730E+02 0.31733632583E+02 0.24607681761E+02
 0.20866299730E+02 0.18473338980E+02 0.17169095823E+02 0.16758050231E+02 0.17169095823E+02
 0.18473338980E+02 0.20866299730E+02 0.24607681761E+02 0.31733632583E+02 0.42875861730E+02
 0.61494604131E+02 0.92843337730E+02 0.14563534342E+03 0.23339950865E+03 0.37400112054E+03
 0.58071313277E+03 0.82853806725E+03 0.97968633535E+03 0.77425616894E+03 0.57383538123E+03
 0.34407495911E+04 0.34407495911E+04 0.26571220569E+04 0.60104714540E+03 0.69797979840E+03
 0.98255641546E+03 0.89172847807E+03 0.65016391240E+03 0.42762353617E+03 0.26940206384E+03
 0.16834141829E+03 0.10679164565E+03 0.70000333754E+02 0.48076779251E+02 0.34937433620E+02
 0.26979057862E+02 0.22026243447E+02 0.19170104684E+02 0.17484320616E+02 0.16738423223E+02
 0.16809507356E+02 0.17712639356E+02 0.19595697025E+02 0.22697118502E+02 0.28311861380E+02
 0.37276619296E+02 0.52201229598E+02 0.77248026985E+02 0.11936928996E+03 0.18958956353E+03
 0.30341572746E+03 0.47624220361E+03 0.70260406269E+03 0.90192860789E+03 0.86009657653E+03
 0.47470957243E+03 0.96331036906E+03 0.57383538123E+03 0.60104714540E+03 0.39515376054E+03
 0.68202124411E+03 0.93477001027E+03 0.87637864937E+03 0.66318954444E+03 0.44906679359E+03
 0.28864756400E+03 0.18259012135E+03 0.11647588704E+03 0.76320767980E+02 0.52124857752E+02
 0.37506788426E+02 0.28598303059E+02 0.22949973761E+02 0.19727663796E+02 0.17718604144E+02
 0.16674311441E+02 0.16430918863E+02 0.16950542075E+02 0.18327393473E+02 0.20762304664E+02
 0.25012705296E+02 0.31902389497E+02 0.43289158062E+02 0.62243126249E+02 0.93884165709E+02
 0.14640091303E+03 0.23177344169E+03 0.36410665222E+03 0.54975248773E+03 0.75878894822E+03
 0.87996881838E+03 0.75009866147E+03 0.47470957243E+03 0.77425616894E+03 0.69797979840E+03
 0.68202124411E+03 0.79885038377E+03 0.88154935906E+03 0.80089663109E+03 0.61942559437E+03
 0.43267501473E+03 0.28599325102E+03 0.18490560917E+03 0.11978874036E+03 0.79231709296E+02
 0.54320441823E+02 0.39046259790E+02 0.29623331368E+02 0.23522477735E+02 0.20071461711E+02
 0.17830898497E+02 0.16552015037E+02 0.16045191276E+02 0.16229067622E+02 0.17145546230E+02
 0.18948122202E+02 0.21859699196E+02 0.27152406099E+02 0.35494710253E+02 0.49221555254E+02
 0.71881801006E+02 0.10914560303E+03 0.16950247233E+03 0.26402872284E+03 0.40275500260E+03
 0.58308154649E+03 0.76852703366E+03 0.87996881838E+03 0.86009657653E+03 0.97968633535E+03
 0.98255641546E+03 0.93477001027E+03 0.88154935906E+03 0.81269079415E+03 0.69342185229E+03
 0.53776971046E+03 0.38570284850E+03 0.26299227286E+03 0.17494579551E+03 0.11603419451E+03
 0.78143255938E+02 0.54250658393E+02 0.39285403274E+02 0.29889445235E+02 0.23663422747E+02
 0.20143602909E+02 0.17785321349E+02 0.16354666141E+02 0.15652813925E+02 0.15568535003E+02
 0.16099078884E+02 0.17348588494E+02 0.19504372422E+02 0.23203293981E+02 0.29122440798E+02
 0.38738313564E+02 0.54392642003E+02 0.79820251618E+02 0.12066533159E+03 0.18472267611E+03
 0.28093941489E+03 0.41542441839E+03 0.58308154649E+03 0.75878894822E+03 0.90192860789E+03
 0.82853806725E+03 0.89172847807E+03 0.87637864937E+03 0.80089663109E+03 0.69342185229E+03
 0.56914058799E+03 0.44036972121E+03 0.32251171977E+03 0.22666393478E+03 0.15560857013E+03
 0.10623786279E+03 0.73336739817E+02 0.51937579444E+02 0.38176679108E+02 0.29340282604E+02
 0.23345172616E+02 0.19916677827E+02 0.17560888004E+02 0.16069041783E+02 0.15248065272E+02
 0.14971768110E+02 0.15204398211E+02 0.16005463809E+02 0.17518984715E+02 0.19942752403E+02
 0.24168136973E+02 0.30744810327E+02 0.41291845363E+02 0.58176230100E+02 0.84981966216E+02
 0.12677981007E+03 0.18996563374E+03 0.28093941489E+03 0.40275500260E+03 0.54975248773E+03
 0.70260406269E+03 0.58071313277E+03 0.65016391240E+03 0.66318954444E+03 0.61942559437E+03
 0.53776971046E+03 0.44036972121E+03 0.34323187347E+03 0.25645793230E+03 0.18546536883E+03
 0.13145896103E+03 0.92635899423E+02 0.65841795750E+02 0.47834652639E+02 0.35909513297E+02
 0.28051473397E+02 0.22599089147E+02 0.19401122344E+02 0.17158249478E+02 0.15691596426E+02
 0.14825101516E+02 0.14431232298E+02 0.14454183030E+02 0.14917945567E+02 0.15923594973E+02
 0.17634353392E+02 0.20242492405E+02 0.24884426813E+02 0.31883820807E+02 0.42908177567E+02
 0.60157889122E+02 0.86760034310E+02 0.12677981007E+03 0.18472267611E+03 0.26402872284E+03
 0.36410665222E+03 0.47624220361E+03 0.37400112054E+03 0.42762353617E+03 0.44906679359E+03
 0.43267501473E+03 0.38570284850E+03 0.32251171977E+03 0.25645793230E+03 0.19621071277E+03
 0.14597266896E+03 0.10677915258E+03 0.77733335314E+02 0.57025769513E+02 0.42656182435E+02
 0.32850924982E+02 0.26209475433E+02 0.21508320193E+02 0.18643750591E+02 0.16601228838E+02
 0.15231739234E+02 0.14382920898E+02 0.13936432417E+02 0.13828337100E+02 0.14057950184E+02
 0.14689359796E+02 0.15846055011E+02 0.17695142950E+02 0.20415571626E+02 0.25319939270E+02
 0.32466178538E+02 0.43458213725E+02 0.60157889122E+02 0.84981966216E+02 0.12066533159E+03
 0.16950247233E+03 0.23177344169E+03 0.30341572746E+03 0.23339950865E+03 0.26940206384E+03
 0.28864756400E+03 0.28599325102E+03 0.26299227286E+03 0.22666393478E+03 0.18546536883E+03
 0.14597266896E+03 0.11186801213E+03 0.84448381995E+02 0.63518652705E+02 0.48142803186E+02
 0.37151529799E+02 0.29431497566E+02 0.24056458265E+02 0.20189725260E+02 0.17718059718E+02
 0.15932708755E+02 0.14711397395E+02 0.13927830097E+02 0.13479521085E+02 0.13303786074E+02
 0.13385601790E+02 0.13760751661E+02 0.14515441697E+02 0.15780811965E+02 0.17718260468E+02
 0.20824042384E+02 0.25464971623E+02 0.32466178538E+02 0.42908177567E+02 0.58176230100E+02
 0.79820251618E+02 0.10914560303E+03 0.14640091303E+03 0.18958956353E+03 0.14563534342E+03
 0.16834141829E+03 0.18259012135E+03 0.18490560917E+03 0.17494579551E+03 0.15560857013E+03
 0.13145896103E+03 0.10677915258E+03 0.84448381995E+02 0.65824728282E+02 0.51156689496E+02
 0.40065898502E+02 0.31915835293E+02 0.26035580041E+02 0.21833282577E+02 0.18770783637E+02
 0.16709540732E+02 0.15206321911E+02 0.14161217964E+02 0.13473047232E+02 0.13058096019E+02
 0.12861144382E+02 0.12861268247E+02 0.13074954802E+02 0.13557774312E+02 0.14404136439E+02
 0.15742684797E+02 0.17723176585E+02 0.20824042384E+02 0.25319939270E+02 0.31883820807E+02
 0.41291845363E+02 0.54392642003E+02 0.71881801006E+02 0.93884165709E+02 0.11936928996E+03
 0.92843337730E+02 0.10679164565E+03 0.11647588704E+03 0.11978874036E+03 0.11603419451E+03
 0.10623786279E+03 0.92635899423E+02 0.77733335314E+02 0.63518652705E+02 0.51156689496E+02
 0.41082230145E+02 0.33235295962E+02 0.27314156483E+02 0.22934489375E+02 0.19547755790E+02
 0.17368060079E+02 0.15700442918E+02 0.14476620985E+02 0.13614834334E+02 0.13036044910E+02
 0.12675213536E+02 0.12487711946E+02 0.12452660027E+02 0.12575064958E+02 0.12887838897E+02
 0.13453692536E+02 0.14365565611E+02 0.15742684797E+02 0.17718260468E+02 0.20415571626E+02
 0.24884426813E+02 0.30744810327E+02 0.38738313564E+02 0.49221555254E+02 0.62243126249E+02
 0.77248026985E+02 0.61494604131E+02 0.70000333754E+02 0.76320767980E+02 0.79231709296E+02
 0.78143255938E+02 0.73336739817E+02 0.65841795750E+02 0.57025769513E+02 0.48142803186E+02
 0.40065898502E+02 0.33235295962E+02 0.27749034260E+02 0.23494760565E+02 0.19979698889E+02
 0.17796728276E+02 0.16072129774E+02 0.14757894287E+02 0.13790509021E+02 0.13103054332E+02
 0.12634846678E+02 0.12337428646E+02 0.12177364515E+02 0.12137277563E+02 0.12216614888E+02
 0.12433092373E+02 0.12825010308E+02 0.13453692536E+02 0.14404136439E+02 0.15780811965E+02
 0.17695142950E+02 0.20242492405E+02 0.24168136973E+02 0.29122440798E+02 0.35494710253E+02
 0.43289158062E+02 0.52201229598E+02 0.42875861730E+02 0.48076779251E+02 0.52124857752E+02
 0.54320441823E+02 0.54250658393E+02 0.51937579444E+02 0.47834652639E+02 0.42656182435E+02
 0.37151529799E+02 0.31915835293E+02 0.27314156483E+02 0.23494760565E+02 0.20451243372E+02
 0.17991287376E+02 0.16278783970E+02 0.14940916523E+02 0.13927499585E+02 0.13181821795E+02
 0.12649536552E+02 0.12284589116E+02 0.12052043379E+02 0.11928526132E+02 0.11901526859E+02
 0.11968823950E+02 0.12138958488E+02 0.12433092373E+02 0.12887838897E+02 0.13557774312E+02
 0.14515441697E+02 0.15846055011E+02 0.17634353392E+02 0.19942752403E+02 0.23203293981E+02
 0.27152406099E+02 0.31902389497E+02 0.37276619296E+02 0.31733632583E+02 0.34937433620E+02
 0.37506788426E+02 0.39046259790E+02 0.39285403274E+02 0.38176679108E+02 0.35909513297E+02
 0.32850924982E+02 0.29431497566E+02 0.26035580041E+02 0.22934489375E+02 0.19979698889E+02
 0.17991287376E+02 0.16341196312E+02 0.15021796605E+02 0.14000615868E+02 0.13232495680E+02
 0.12669630197E+02 0.12268764928E+02 0.11995317442E+02 0.11824696534E+02 0.11741575731E+02
 0.11738181776E+02 0.11812715301E+02 0.11968823950E+02 0.12216614888E+02 0.12575064958E+02
 0.13074954802E+02 0.13760751661E+02 0.14689359796E+02 0.15923594973E+02 0.17518984715E+02
 0.19504372422E+02 0.21859699196E+02 0.25012705296E+02 0.28311861380E+02 0.24607681761E+02
 0.26979057862E+02 0.28598303059E+02 0.29623331368E+02 0.29889445235E+02 0.29340282604E+02
 0.28051473397E+02 0.26209475433E+02 0.24056458265E+02 0.21833282577E+02 0.19547755790E+02
 0.17796728276E+02 0.16278783970E+02 0.15021796605E+02 0.14021307050E+02 0.13251733339E+02
 0.12677083356E+02 0.12259692428E+02 0.11966311368E+02 0.11771422651E+02 0.11658072714E+02
 0.11616834411E+02 0.11643746528E+02 0.11738181776E+02 0.11901526859E+02 0.12137277563E+02
 0.12452660027E+02 0.12861268247E+02 0.13385601790E+02 0.14057950184E+02 0.14917945567E+02
 0.16005463809E+02 0.17348588494E+02 0.18948122202E+02 0.20762304664E+02 0.22697118502E+02
 0.20866299730E+02 0.22026243447E+02 0.22949973761E+02 0.23522477735E+02 0.23663422747E+02
 0.23345172616E+02 0.22599089147E+02 0.21508320193E+02 0.20189725260E+02 0.18770783637E+02
 0.17368060079E+02 0.16072129774E+02 0.14940916523E+02 0.14000615868E+02 0.13251733339E+02
 0.12677440857E+02 0.12252006305E+02 0.11947887632E+02 0.11740805051E+02 0.11612600328E+02
 0.11552022580E+02 0.11553833191E+02 0.11616834411E+02 0.11741575731E+02 0.11928526132E+02
 0.12177364515E+02 0.12487711946E+02 0.12861144382E+02 0.13303786074E+02 0.13828337100E+02
 0.14454183030E+02 0.15204398211E+02 0.16099078884E+02 0.17145546230E+02 0.18327393473E+02
 0.19595697025E+02 0.18473338980E+02 0.19170104684E+02 0.19727663796E+02 0.20071461711E+02
 0.20143602909E+02 0.19916677827E+02 0.19401122344E+02 0.18643750591E+02 0.17718059718E+02
 0.16709540732E+02 0.15700442918E+02 0.14757894287E+02 0.13927499585E+02 0.13232495680E+02
 0.12677083356E+02 0.12252006305E+02 0.11940642021E+02 0.11724405373E+02 0.11586802526E+02
 0.11515862649E+02 0.11504932881E+02 0.11552022580E+02 0.11658072714E+02 0.11824696534E+02
 0.12052043379E+02 0.12337428646E+02 0.12675213536E+02 0.13058096019E+02 0.13479521085E+02
 0.13936432417E+02 0.14431232298E+02 0.14971768110E+02 0.15568535003E+02 0.16229067622E+02
 0.16950542075E+02 0.17712639356E+02 0.17169095823E+02 0.17484320616E+02 0.17718604144E+02
 0.17830898497E+02 0.17785321349E+02 0.17560888004E+02 0.17158249478E+02 0.16601228838E+02
 0.15932708755E+02 0.15206321911E+02 0.14476620985E+02 0.13790509021E+02 0.13181821795E+02
 0.12669630197E+02 0.12259692428E+02 0.11947887632E+02 0.11724405373E+02 0.11577728975E+02
 0.11497793907E+02 0.11477987591E+02 0.11515862649E+02 0.11612600328E+02 0.11771422651E+02
 0.11995317442E+02 0.12284589116E+02 0.12634846678E+02 0.13036044910E+02 0.13473047232E+02
 0.13927830097E+02 0.14382920898E+02 0.14825101516E+02 0.15248065272E+02 0.15652813925E+02
 0.16045191276E+02 0.16430918863E+02 0.16809507356E+02 0.16758050231E+02 0.16738423223E+02
 0.16674311441E+02 0.16552015037E+02 0.16354666141E+02 0.16069041783E+02 0.15691596426E+02
 0.15231739234E+02 0.14711397395E+02 0.14161217964E+02 0.13614834334E+02 0.13103054332E+02
 0.12649536552E+02 0.12268764928E+02 0.11966311368E+02 0.11740805051E+02 0.11586802526E+02
 0.11497793907E+02 0.11468748323E+02 0.11497793907E+02 0.11586802526E+02 0.11740805051E+02
 0.11966311368E+02 0.12268764928E+02 0.12649536552E+02 0.13103054332E+02 0.13614834334E+02
 0.14161217964E+02 0.14711397395E+02 0.15231739234E+02 0.15691596426E+02 0.16069041783E+02
 0.16354666141E+02 0.16552015037E+02 0.16674311441E+02 0.16738423223E+02 0.17169095823E+02
 0.16809507356E+02 0.16430918863E+02 0.16045191276E+02 0.15652813925E+02 0.15248065272E+02
 0.14825101516E+02 0.14382920898E+02 0.13927830097E+02 0.13473047232E+02 0.13036044910E+02
 0.12634846678E+02 0.12284589116E+02 0.11995317442E+02 0.11771422651E+02 0.11612600328E+02
 0.11515862649E+02 0.11477987591E+02 0.11497793907E+02 0.11577728975E+02 0.11724405373E+02
 0.11947887632E+02 0.12259692428E+02 0.12669630197E+02 0.13181821795E+02 0.13790509021E+02
 0.14476620985E+02 0.15206321911E+02 0.15932708755E+02 0.16601228838E+02 0.17158249478E+02
 0.17560888004E+02 0.17785321349E+02 0.17830898497E+02 0.17718604144E+02 0.17484320616E+02
 0.18473338980E+02 0.17712639356E+02 0.16950542075E+02 0.16229067622E+02 0.15568535003E+02
 0.14971768110E+02 0.14431232298E+02 0.13936432417E+02 0.13479521085E+02 0.13058096019E+02
 0.12675213536E+02 0.12337428646E+02 0.12052043379E+02 0.11824696534E+02 0.11658072714E+02
 0.11552022580E+02 0.11504932881E+02 0.11515862649E+02 0.11586802526E+02 0.11724405373E+02
 0.11940642021E+02 0.12252006305E+02 0.12677083356E+02 0.13232495680E+02 0.13927499585E+02
 0.14757894287E+02 0.15700442918E+02 0.16709540732E+02 0.17718059718E+02 0.18643750591E+02
 0.19401122344E+02 0.19916677827E+02 0.20143602909E+02 0.20071461711E+02 0.19727663796E+02
 0.19170104684E+02 0.20866299730E+02 0.19595697025E+02 0.18327393473E+02 0.17145546230E+02
 0.16099078884E+02 0.15204398211E+02 0.14454183030E+02 0.13828337100E+02 0.13303786074E+02
 0.12861144382E+02 0.12487711946E+02 0.12177364515E+02 0.11928526132E+02 0.11741575731E+02
 0.11616834411E+02 0.11553833191E+02 0.11552022580E+02 0.11612600328E+02 0.11740805051E+02
 0.11947887632E+02 0.12252006305E+02 0.12677440857E+02 0.13251733339E+02 0.14000615868E+02
 0.14940916523E+02 0.16072129774E+02 0.17368060079E+02 0.18770783637E+02 0.20189725260E+02
 0.21508320193E+02 0.22599089147E+02 0.23345172616E+02 0.23663422747E+02 0.23522477735E+02
 0.22949973761E+02 0.22026243447E+02 0.24607681761E+02 0.22697118502E+02 0.20762304664E+02
 0.18948122202E+02 0.17348588494E+02 0.16005463809E+02 0.14917945567E+02 0.14057950184E+02
 0.13385601790E+02 0.12861268247E+02 0.12452660027E+02 0.12137277563E+02 0.11901526859E+02
 0.11738181776E+02 0.11643746528E+02 0.11616834411E+02 0.11658072714E+02 0.11771422651E+02
 0.11966311368E+02 0.12259692428E+02 0.12677083356E+02 0.13251733339E+02 0.14021307050E+02
 0.15021796605E+02 0.16278783970E+02 0.17796728276E+02 0.19547755790E+02 0.21833282577E+02
 0.24056458265E+02 0.26209475433E+02 0.28051473397E+02 0.29340282604E+02 0.29889445235E+02
 0.29623331368E+02 0.28598303059E+02 0.26979057862E+02 0.31733632583E+02 0.28311861380E+02
 0.25012705296E+02 0.21859699196E+02 0.19504372422E+02 0.17518984715E+02 0.15923594973E+02
 0.14689359796E+02 0.13760751661E+02 0.13074954802E+02 0.12575064958E+02 0.12216614888E+02
 0.11968823950E+02 0.11812715301E+02 0.11738181776E+02 0.11741575731E+02 0.11824696534E+02
 0.11995317442E+02 0.12268764928E+02 0.12669630197E+02 0.13232495680E+02 0.14000615868E+02
 0.15021796605E+02 0.16341196312E+02 0.17991287376E+02 0.19979698889E+02 0.22934489375E+02
 0.26035580041E+02 0.29431497566E+02 0.32850924982E+02 0.35909513297E+02 0.38176679108E+02
 0.39285403274E+02 0.39046259790E+02 0.37506788426E+02 0.34937433620E+02 0.42875861730E+02
 0.37276619296E+02 0.31902389497E+02 0.27152406099E+02 0.23203293981E+02 0.19942752403E+02
 0.17634353392E+02 0.15846055011E+02 0.14515441697E+02 0.13557774312E+02 0.12887838897E+02
 0.12433092373E+02 0.12138958488E+02 0.11968823950E+02 0.11901526859E+02 0.11928526132E+02
 0.12052043379E+02 0.12284589116E+02 0.12649536552E+02 0.13181821795E+02 0.13927499585E+02
 0.14940916523E+02 0.16278783970E+02 0.17991287376E+02 0.20451243372E+02 0.23494760565E+02
 0.27314156483E+02 0.31915835293E+02 0.37151529799E+02 0.42656182435E+02 0.47834652639E+02
 0.51937579444E+02 0.54250658393E+02 0.54320441823E+02 0.52124857752E+02 0.48076779251E+02
 0.61494604131E+02 0.52201229598E+02 0.43289158062E+02 0.35494710253E+02 0.29122440798E+02
 0.24168136973E+02 0.20242492405E+02 0.17695142950E+02 0.15780811965E+02 0.14404136439E+02
 0.13453692536E+02 0.12825010308E+02 0.12433092373E+02 0.12216614888E+02 0.12137277563E+02
 0.12177364515E+02 0.12337428646E+02 0.12634846678E+02 0.13103054332E+02 0.13790509021E+02
 0.14757894287E+02 0.16072129774E+02 0.17796728276E+02 0.19979698889E+02 0.23494760565E+02
 0.27749034260E+02 0.33235295962E+02 0.40065898502E+02 0.48142803186E+02 0.57025769513E+02
 0.65841795750E+02 0.73336739817E+02 0.78143255938E+02 0.79231709296E+02 0.76320767980E+02
 0.70000333754E+02 0.92843337730E+02 0.77248026985E+02 0.62243126249E+02 0.49221555254E+02
 0.38738313564E+02 0.30744810327E+02 0.24884426813E+02 0.20415571626E+02 0.17718260468E+02
 0.15742684797E+02 0.14365565611E+02 0.13453692536E+02 0.12887838897E+02 0.12575064958E+02
 0.12452660027E+02 0.12487711946E+02 0.12675213536E+02 0.13036044910E+02 0.13614834334E+02
 0.14476620985E+02 0.15700442918E+02 0.17368060079E+02 0.19547755790E+02 0.22934489375E+02
 0.27314156483E+02 0.33235295962E+02 0.41082230145E+02 0.51156689496E+02 0.63518652705E+02
 0.77733335314E+02 0.92635899423E+02 0.10623786279E+03 0.11603419451E+03 0.11978874036E+03
 0.11647588704E+03 0.10679164565E+03 0.14563534342E+03 0.11936928996E+03 0.93884165709E+02
 0.71881801006E+02 0.54392642003E+02 0.41291845363E+02 0.31883820807E+02 0.25319939270E+02
 0.20824042384E+02 0.17723176585E+02 0.15742684797E+02 0.14404136439E+02 0.13557774312E+02
 0.13074954802E+02 0.12861268247E+02 0.12861144382E+02 0.13058096019E+02 0.13473047232E+02
 0.14161217964E+02 0.15206321911E+02 0.16709540732E+02 0.18770783637E+02 0.21833282577E+02
 0.26035580041E+02 0.31915835293E+02 0.40065898502E+02 0.51156689496E+02 0.65824728282E+02
 0.84448381995E+02 0.10677915258E+03 0.13145896103E+03 0.15560857013E+03 0.17494579551E+03
 0.18490560917E+03 0.18259012135E+03 0.16834141829E+03 0.23339950865E+03 0.18958956353E+03
 0.14640091303E+03 0.10914560303E+03 0.79820251618E+02 0.58176230100E+02 0.42908177567E+02
 0.32466178538E+02 0.25464971623E+02 0.20824042384E+02 0.17718260468E+02 0.15780811965E+02
 0.14515441697E+02 0.13760751661E+02 0.13385601790E+02 0.13303786074E+02 0.13479521085E+02
 0.13927830097E+02 0.14711397395E+02 0.15932708755E+02 0.17718059718E+02 0.20189725260E+02
 0.24056458265E+02 0.29431497566E+02 0.37151529799E+02 0.48142803186E+02 0.63518652705E+02
 0.84448381995E+02 0.11186801213E+03 0.14597266896E+03 0.18546536883E+03 0.22666393478E+03
 0.26299227286E+03 0.28599325102E+03 0.28864756400E+03 0.26940206384E+03 0.37400112054E+03
 0.30341572746E+03 0.23177344169E+03 0.16950247233E+03 0.12066533159E+03 0.84981966216E+02
 0.60157889122E+02 0.43458213725E+02 0.32466178538E+02 0.25319939270E+02 0.20415571626E+02
 0.17695142950E+02 0.15846055011E+02 0.14689359796E+02 0.14057950184E+02 0.13828337100E+02
 0.13936432417E+02 0.14382920898E+02 0.15231739234E+02 0.16601228838E+02 0.18643750591E+02
 0.21508320193E+02 0.26209475433E+02 0.32850924982E+02 0.42656182435E+02 0.57025769513E+02
 0.77733335314E+02 0.10677915258E+03 0.14597266896E+03 0.19621071277E+03 0.25645793230E+03
 0.32251171977E+03 0.38570284850E+03 0.43267501473E+03 0.44906679359E+03 0.42762353617E+03
 0.58071313277E+03 0.47624220361E+03 0.36410665222E+03 0.26402872284E+03 0.18472267611E+03
 0.12677981007E+03 0.86760034310E+02 0.60157889122E+02 0.42908177567E+02 0.31883820807E+02
 0.24884426813E+02 0.20242492405E+02 0.17634353392E+02 0.15923594973E+02 0.14917945567E+02
 0.14454183030E+02 0.14431232298E+02 0.14825101516E+02 0.15691596426E+02 0.17158249478E+02
 0.19401122344E+02 0.22599089147E+02 0.28051473397E+02 0.35909513297E+02 0.47834652639E+02
 0.65841795750E+02 0.92635899423E+02 0.13145896103E+03 0.18546536883E+03 0.25645793230E+03
 0.34323187347E+03 0.44036972121E+03 0.53776971046E+03 0.61942559437E+03 0.66318954444E+03
 0.65016391240E+03 0.82853806725E+03 0.70260406269E+03 0.54975248773E+03 0.40275500260E+03
 0.28093941489E+03 0.18996563374E+03 0.12677981007E+03 0.84981966216E+02 0.58176230100E+02
 0.41291845363E+02 0.30744810327E+02 0.24168136973E+02 0.19942752403E+02 0.17518984715E+02
 0.16005463809E+02 0.15204398211E+02 0.14971768110E+02 0.15248065272E+02 0.16069041783E+02
 0.17560888004E+02 0.19916677827E+02 0.23345172616E+02 0.29340282604E+02 0.38176679108E+02
 0.51937579444E+02 0.73336739817E+02 0.10623786279E+03 0.15560857013E+03 0.22666393478E+03
 0.32251171977E+03 0.44036972121E+03 0.56914058799E+03 0.69342185229E+03 0.80089663109E+03
 0.87637864937E+03 0.89172847807E+03 0.97968633535E+03 0.90192860789E+03 0.75878894822E+03
 0.58308154649E+03 0.41542441839E+03 0.28093941489E+03 0.18472267611E+03 0.12066533159E+03
 0.79820251618E+02 0.54392642003E+02 0.38738313564E+02 0.29122440798E+02 0.23203293981E+02
 0.19504372422E+02 0.17348588494E+02 0.16099078884E+02 0.15568535003E+02 0.15652813925E+02
 0.16354666141E+02 0.17785321349E+02 0.20143602909E+02 0.23663422747E+02 0.29889445235E+02
 0.39285403274E+02 0.54250658393E+02 0.78143255938E+02 0.11603419451E+03 0.17494579551E+03
 0.26299227286E+03 0.38570284850E+03 0.53776971046E+03 0.69342185229E+03 0.81269079415E+03
 0.88154935906E+03 0.93477001027E+03 0.98255641546E+03 0.77425616894E+03 0.86009657653E+03
 0.87996881838E+03 0.76852703366E+03 0.58308154649E+03 0.40275500260E+03 0.26402872284E+03
 0.16950247233E+03 0.10914560303E+03 0.71881801006E+02 0.49221555254E+02 0.35494710253E+02
 0.27152406099E+02 0.21859699196E+02 0.18948122202E+02 0.17145546230E+02 0.16229067622E+02
 0.16045191276E+02 0.16552015037E+02 0.17830898497E+02 0.20071461711E+02 0.23522477735E+02
 0.29623331368E+02 0.39046259790E+02 0.54320441823E+02 0.79231709296E+02 0.11978874036E+03
 0.18490560917E+03 0.28599325102E+03 0.43267501473E+03 0.61942559437E+03 0.80089663109E+03
 0.88154935906E+03 0.79885038377E+03 0.68202124411E+03 0.69797979840E+03 0.57383538123E+03
 0.47470957243E+03 0.75009866147E+03 0.87996881838E+03 0.75878894822E+03 0.54975248773E+03
 0.36410665222E+03 0.23177344169E+03 0.14640091303E+03 0.93884165709E+02 0.62243126249E+02
 0.43289158062E+02 0.31902389497E+02 0.25012705296E+02 0.20762304664E+02 0.18327393473E+02
 0.16950542075E+02 0.16430918863E+02 0.16674311441E+02 0.17718604144E+02 0.19727663796E+02
 0.22949973761E+02 0.28598303059E+02 0.37506788426E+02 0.52124857752E+02 0.76320767980E+02
 0.11647588704E+03 0.18259012135E+03 0.28864756400E+03 0.44906679359E+03 0.66318954444E+03
 0.87637864937E+03 0.93477001027E+03 0.68202124411E+03 0.39515376054E+03 0.60104714540E+03
 0.34407495911E+04 0.96331036906E+03 0.47470957243E+03 0.86009657653E+03 0.90192860789E+03
 0.70260406269E+03 0.47624220361E+03 0.30341572746E+03 0.18958956353E+03 0.11936928996E+03
 0.77248026985E+02 0.52201229598E+02 0.37276619296E+02 0.28311861380E+02 0.22697118502E+02
 0.19595697025E+02 0.17712639356E+02 0.16809507356E+02 0.16738423223E+02 0.17484320616E+02
 0.19170104684E+02 0.22026243447E+02 0.26979057862E+02 0.34937433620E+02 0.48076779251E+02
 0.70000333754E+02 0.10679164565E+03 0.16834141829E+03 0.26940206384E+03 0.42762353617E+03
 0.65016391240E+03 0.89172847807E+03 0.98255641546E+03 0.69797979840E+03 0.60104714540E+03
 0.26571220569E+04 0.35240388441E+04 0.16469441403E+04 0.46189877586E+03 0.80570815393E+03
 0.96026125851E+03 0.79819526489E+03 0.55821957856E+03 0.36043574536E+03 0.22583362580E+03
 0.14152497753E+03 0.90612545953E+02 0.60268835757E+02 0.42187613957E+02 0.31336519094E+02
 0.24394294106E+02 0.20720757230E+02 0.18373101705E+02 0.17094149318E+02 0.16691159548E+02
 0.17094149318E+02 0.18373101705E+02 0.20720757230E+02 0.24394294106E+02 0.31336519094E+02
 0.42187613957E+02 0.60268835757E+02 0.90612545953E+02 0.14152497753E+03 0.22583362580E+03
 0.36043574536E+03 0.55821957856E+03 0.79819526489E+03 0.96026125851E+03 0.80570815393E+03
 0.46189877586E+03 0.16469441403E+04 0.16469441403E+04 0.12644937207E+04 0.44558700054E+03
 0.73873731722E+03 0.97044627924E+03 0.86056375201E+03 0.62476655461E+03 0.41168139446E+03
 0.26034040202E+03 0.16337758301E+03 0.10409202671E+03 0.68519998310E+02 0.47250179152E+02
 0.34463971664E+02 0.26699353228E+02 0.21861492157E+02 0.19058197829E+02 0.17404176234E+02
 0.16672082503E+02 0.16740974843E+02 0.17625730858E+02 0.19472065690E+02 0.22515655017E+02
 0.27992953406E+02 0.36732215794E+02 0.51243780764E+02 0.75523123455E+02 0.11621359739E+03
 0.18379907628E+03 0.29297340886E+03 0.45847164273E+03 0.67658317266E+03 0.87775579816E+03
 0.87413719613E+03 0.53004354269E+03 0.53041515283E+03 0.46189877586E+03 0.44558700054E+03
 0.43593122193E+03 0.73378234043E+03 0.92885615673E+03 0.84817371911E+03 0.63792361342E+03
 0.43235079626E+03 0.27882612662E+03 0.17709419500E+03 0.11344779981E+03 0.74647865282E+02
 0.51188538680E+02 0.36971592392E+02 0.28284092473E+02 0.22770976382E+02 0.19607139204E+02
 0.17635163468E+02 0.16609723894E+02 0.16369549295E+02 0.16877461287E+02 0.18226297600E+02
 0.20614286194E+02 0.24766291603E+02 0.31489978570E+02 0.42576922932E+02 0.60980703356E+02
 0.91608019306E+02 0.14226985658E+03 0.22435247333E+03 0.35129298546E+03 0.52970531319E+03
 0.73426351348E+03 0.86856672226E+03 0.78580801322E+03 0.53004354269E+03 0.80570815393E+03
 0.73873731722E+03 0.73378234043E+03 0.82617882857E+03 0.87262866121E+03 0.77666841424E+03
 0.59695281581E+03 0.41703473085E+03 0.27640185186E+03 0.17935954123E+03 0.11665795483E+03
 0.77472361509E+02 0.53324525254E+02 0.38473867484E+02 0.29287749083E+02 0.23336204390E+02
 0.19946738564E+02 0.17746837740E+02 0.16490653860E+02 0.15991524715E+02 0.16169532811E+02
 0.17066029538E+02 0.18832376075E+02 0.21689131171E+02 0.26850865488E+02 0.34984302801E+02
 0.48335999528E+02 0.70316151833E+02 0.10635164422E+03 0.16453623642E+03 0.25541359637E+03
 0.38866723992E+03 0.56272919558E+03 0.74599532744E+03 0.86856672226E+03 0.87413719613E+03
 0.96026125851E+03 0.97044627924E+03 0.92885615673E+03 0.87262866121E+03 0.79511119230E+03
 0.67209271393E+03 0.51920590047E+03 0.37241814875E+03 0.25449497884E+03 0.16983598795E+03
 0.11305467289E+03 0.76425959905E+02 0.53260284759E+02 0.38710047355E+02 0.29549846544E+02
 0.23478160988E+02 0.20020137532E+02 0.17703992035E+02 0.16298335228E+02 0.15607393383E+02
 0.15521882827E+02 0.16039235531E+02 0.17262097338E+02 0.19375406413E+02 0.22989134014E+02
 0.28768038845E+02 0.38136574517E+02 0.53352583837E+02 0.78001724113E+02 0.11748190129E+03
 0.17922233777E+03 0.27174818533E+03 0.40100556678E+03 0.56272919558E+03 0.73426351348E+03
 0.87775579816E+03 0.79819526489E+03 0.86056375201E+03 0.84817371911E+03 0.77666841424E+03
 0.67209271393E+03 0.55068678998E+03 0.42573146824E+03 0.31201682786E+03 0.21972755693E+03
 0.15127188028E+03 0.10361565832E+03 0.71778620328E+02 0.51017082074E+02 0.37632337954E+02
 0.29015991289E+02 0.23169531003E+02 0.19800371928E+02 0.17486025179E+02 0.16019800202E+02
 0.15211545286E+02 0.14937270264E+02 0.15161962969E+02 0.15944289594E+02 0.17426242266E+02
 0.19803419175E+02 0.23927196814E+02 0.30345774083E+02 0.40617072997E+02 0.57022581916E+02
 0.82999916548E+02 0.12339333625E+03 0.18428767570E+03 0.27174818533E+03 0.38866723992E+03
 0.52970531319E+03 0.67658317266E+03 0.55821957856E+03 0.62476655461E+03 0.63792361342E+03
 0.59695281581E+03 0.51920590047E+03 0.42573146824E+03 0.33220891207E+03 0.24859607862E+03
 0.18015007146E+03 0.12802115995E+03 0.90482182806E+02 0.64519499208E+02 0.47033074054E+02
 0.35425427750E+02 0.27759865600E+02 0.22440920083E+02 0.19297596832E+02 0.17093545302E+02
 0.15651561971E+02 0.14798238722E+02 0.14408278191E+02 0.14426965273E+02 0.14878011971E+02
 0.15860981773E+02 0.17536890634E+02 0.20096182611E+02 0.24623487252E+02 0.31452345649E+02
 0.42187351932E+02 0.58944145926E+02 0.84721724664E+02 0.12339333625E+03 0.17922233777E+03
 0.25541359637E+03 0.35129298546E+03 0.45847164273E+03 0.36043574536E+03 0.41168139446E+03
 0.43235079626E+03 0.41703473085E+03 0.37241814875E+03 0.31201682786E+03 0.24859607862E+03
 0.19057511970E+03 0.14209066842E+03 0.10419611525E+03 0.76063684376E+02 0.55968778380E+02
 0.41998261282E+02 0.32446284138E+02 0.25962992695E+02 0.21373807400E+02 0.18557655204E+02
 0.16549873634E+02 0.15202825298E+02 0.14366470825E+02 0.13924577844E+02 0.13814459800E+02
 0.14035566304E+02 0.14651004375E+02 0.15782402610E+02 0.17594693543E+02 0.20265336203E+02
 0.25046283586E+02 0.32018752833E+02 0.42721344580E+02 0.58944145926E+02 0.82999916548E+02
 0.11748190129E+03 0.16453623642E+03 0.22435247333E+03 0.29297340886E+03 0.22583362580E+03
 0.26034040202E+03 0.27882612662E+03 0.27640185186E+03 0.25449497884E+03 0.21972755693E+03
 0.18015007146E+03 0.14209066842E+03 0.10913783169E+03 0.82587445240E+02 0.62282759506E+02
 0.47340040818E+02 0.36640448421E+02 0.29112018152E+02 0.23860640963E+02 0.20082820287E+02
 0.17652573806E+02 0.15897010823E+02 0.14695056128E+02 0.13922398532E+02 0.13478438595E+02
 0.13301753288E+02 0.13377714479E+02 0.13741574339E+02 0.14478156202E+02 0.15716616766E+02
 0.17616291697E+02 0.20338902109E+02 0.25187252114E+02 0.32018752833E+02 0.42187351932E+02
 0.57022581916E+02 0.78001724113E+02 0.10635164422E+03 0.14226985658E+03 0.18379907628E+03
 0.14152497753E+03 0.16337758301E+03 0.17709419500E+03 0.17935954123E+03 0.16983598795E+03