unknown system                          
   1.00000000000000     
     1.420026    1.420026    1.420026
     1.420026   -1.420026   -1.420026
     0.000000    5.680104   -5.680104
   Fe
     4
Direct
  0.000000  0.000000  0.500000
  0.500000  0.500000  0.750000
  0.000000  0.000000  0.000000
  0.500000  0.500000  0.250000
 
   36   36  120
 0.14968716682E+04 0.33304101340E+04 0.51558062165E+03 0.70175203024E+03 0.90840841018E+03
 0.77485416073E+03 0.54583605507E+03 0.35296672508E+03 0.22100720748E+03 0.13817383565E+03
 0.87959463956E+02 0.57851866290E+02 0.39695541706E+02 0.28677762550E+02 0.21478853544E+02
 0.17668148231E+02 0.15210464747E+02 0.13890368014E+02 0.13470189595E+02 0.13890368014E+02
 0.15210464747E+02 0.17668148231E+02 0.21478853544E+02 0.28677762550E+02 0.39695541706E+02
 0.57851866290E+02 0.87959463956E+02 0.13817383565E+03 0.22100720748E+03 0.35296672508E+03
 0.54583605507E+03 0.77485416073E+03 0.90840841018E+03 0.70175203024E+03 0.51558062165E+03
 0.33304101340E+04 0.33304101340E+04 0.26051691013E+04 0.57679062164E+03 0.62993519595E+03
 0.90008310563E+03 0.82377023969E+03 0.60358716876E+03 0.39844359389E+03 0.25174279435E+03
 0.15757646620E+03 0.99876663030E+02 0.65099947121E+02 0.44143311296E+02 0.31402893108E+02
 0.23560414983E+02 0.18656849129E+02 0.15796364509E+02 0.14155776414E+02 0.13458723796E+02
 0.13594809719E+02 0.14588423826E+02 0.16599913099E+02 0.19908921927E+02 0.25785172349E+02
 0.34966218206E+02 0.50004621723E+02 0.74786371866E+02 0.11599411380E+03 0.18411531380E+03
 0.29408749427E+03 0.46087287901E+03 0.68017211606E+03 0.87715976839E+03 0.85099742608E+03
 0.50524910876E+03 0.98538743624E+03 0.51558062165E+03 0.57679062164E+03 0.45613904708E+03
 0.70174564181E+03 0.90327860497E+03 0.83038190344E+03 0.62389288435E+03 0.42127735396E+03
 0.27049703681E+03 0.17094527356E+03 0.10879205201E+03 0.70847667564E+02 0.47813215421E+02
 0.33719302070E+02 0.25043894555E+02 0.19491834006E+02 0.16303256842E+02 0.14374262834E+02
 0.13416756715E+02 0.13288586107E+02 0.13956261638E+02 0.15535750215E+02 0.18281819675E+02
 0.22934017903E+02 0.30363843373E+02 0.42333095990E+02 0.61871153282E+02 0.93992710494E+02
 0.14679901262E+03 0.23223421526E+03 0.36474339919E+03 0.55200574121E+03 0.76761408754E+03
 0.90545902002E+03 0.79776940824E+03 0.50524910876E+03 0.70175203024E+03 0.62993519595E+03
 0.70174564181E+03 0.85099114272E+03 0.90545720182E+03 0.79625013566E+03 0.60358159210E+03
 0.41658749586E+03 0.27330298735E+03 0.17572279836E+03 0.11319163074E+03 0.74238070740E+02
 0.50228760352E+02 0.35370188297E+02 0.26140571793E+02 0.20109903324E+02 0.16684599572E+02
 0.14524497672E+02 0.13338438100E+02 0.12978611647E+02 0.13339322469E+02 0.14526365674E+02
 0.16687676613E+02 0.20113660030E+02 0.26145346450E+02 0.35374847957E+02 0.50234216548E+02
 0.74245471199E+02 0.11319652983E+03 0.17572852593E+03 0.27330639066E+03 0.41659204986E+03
 0.60358882951E+03 0.79625335598E+03 0.90545902002E+03 0.85099742608E+03 0.90840841018E+03
 0.90008310563E+03 0.90327860497E+03 0.90545720182E+03 0.84936979247E+03 0.71646813446E+03
 0.54582390137E+03 0.38538330073E+03 0.25955068533E+03 0.17091582580E+03 0.11226246753E+03
 0.74716344160E+02 0.51045673512E+02 0.36136324193E+02 0.26734187880E+02 0.20458594934E+02
 0.16903623555E+02 0.14579108934E+02 0.13220541794E+02 0.12657888566E+02 0.12763883690E+02
 0.13588473715E+02 0.15232245649E+02 0.17962891826E+02 0.22433582902E+02 0.29421042590E+02
 0.40376916705E+02 0.57764779542E+02 0.85392002628E+02 0.12906223244E+03 0.19670196522E+03
 0.29718940258E+03 0.43567463117E+03 0.60358882951E+03 0.76761408754E+03 0.87715976839E+03
 0.77485416073E+03 0.82377023969E+03 0.83038190344E+03 0.79625013566E+03 0.71646813446E+03
 0.59691417789E+03 0.46085460682E+03 0.33426064283E+03 0.23219738887E+03 0.15751071081E+03
 0.10618384462E+03 0.72188719012E+02 0.50140529219E+02 0.35905166047E+02 0.26753516232E+02
 0.20501507839E+02 0.16932520969E+02 0.14519977095E+02 0.13055455087E+02 0.12326206170E+02
 0.12233133606E+02 0.12740038715E+02 0.13955195609E+02 0.16017023486E+02 0.19203965571E+02
 0.24493672219E+02 0.32423671436E+02 0.44715449315E+02 0.63772509307E+02 0.93246224373E+02
 0.13812109403E+03 0.20439864319E+03 0.29718940258E+03 0.41659204986E+03 0.55200574121E+03
 0.68017211606E+03 0.54583605507E+03 0.60358716876E+03 0.62389288435E+03 0.60358159210E+03
 0.54582390137E+03 0.46085460682E+03 0.36471422907E+03 0.27326721135E+03 0.19666161769E+03
 0.13807450937E+03 0.96036237253E+02 0.67079717614E+02 0.47635662260E+02 0.34707967714E+02
 0.26180447904E+02 0.20237884645E+02 0.16747832231E+02 0.14348356347E+02 0.12822870547E+02
 0.11996094440E+02 0.11730712395E+02 0.12005322079E+02 0.12840739569E+02 0.14374623292E+02
 0.16780795914E+02 0.20277582635E+02 0.26224766036E+02 0.34754221452E+02 0.47686157058E+02
 0.67126810683E+02 0.96089319196E+02 0.13812109403E+03 0.19670196522E+03 0.27330639066E+03
 0.36474339919E+03 0.46087287901E+03 0.35296672508E+03 0.39844359389E+03 0.42127735396E+03
 0.41658749586E+03 0.38538330073E+03 0.33426064283E+03 0.27326721135E+03 0.21244266529E+03
 0.15890338973E+03 0.11586933753E+03 0.83474395754E+02 0.60165181414E+02 0.43886293496E+02
 0.32691457746E+02 0.25078987977E+02 0.19674175907E+02 0.16363756514E+02 0.14055746288E+02
 0.12534784765E+02 0.11653133028E+02 0.11270509197E+02 0.11358193380E+02 0.11908442994E+02
 0.13004975762E+02 0.14774251990E+02 0.17417365557E+02 0.21073905585E+02 0.27382683252E+02
 0.36037750307E+02 0.48745571977E+02 0.67126810683E+02 0.93246224373E+02 0.12906223244E+03
 0.17572852593E+03 0.23223421526E+03 0.29408749427E+03 0.22100720748E+03 0.25174279435E+03
 0.27049703681E+03 0.27330298735E+03 0.25955068533E+03 0.23219738887E+03 0.19666161769E+03
 0.15890338973E+03 0.12371517903E+03 0.93848264285E+02 0.70201831982E+02 0.52366104458E+02
 0.39368906048E+02 0.30091209259E+02 0.23561879414E+02 0.18844824234E+02 0.15804621612E+02
 0.13650963225E+02 0.12193683974E+02 0.11300225752E+02 0.10848538091E+02 0.10797732517E+02
 0.11133272134E+02 0.11895489082E+02 0.13168214073E+02 0.15090285934E+02 0.17835687058E+02
 0.21959987983E+02 0.27787202593E+02 0.36037750307E+02 0.47686157058E+02 0.63772509307E+02
 0.85392002628E+02 0.11319652983E+03 0.14679901262E+03 0.18411531380E+03 0.13817383565E+03
 0.15757646620E+03 0.17094527356E+03 0.17572279836E+03 0.17091582580E+03 0.15751071081E+03
 0.13807450937E+03 0.11586933753E+03 0.93848264285E+02 0.74089656547E+02 0.57584693201E+02
 0.44523532245E+02 0.34567102425E+02 0.27186334564E+02 0.21778240648E+02 0.17810736900E+02
 0.15108741086E+02 0.13161519000E+02 0.11810224861E+02 0.10944946690E+02 0.10458880383E+02
 0.10320040605E+02 0.10494984064E+02 0.11014835974E+02 0.11911167052E+02 0.13290544965E+02
 0.15259997286E+02 0.17984697229E+02 0.21959987983E+02 0.27382683252E+02 0.34754221452E+02
 0.44715449315E+02 0.57764779542E+02 0.74245471199E+02 0.93992710494E+02 0.11599411380E+03
 0.87959463956E+02 0.99876663030E+02 0.10879205201E+03 0.11319163074E+03 0.11226246753E+03
 0.10618384462E+03 0.96036237253E+02 0.83474395754E+02 0.70201831982E+02 0.57584693201E+02
 0.46479979140E+02 0.37257313612E+02 0.29893170119E+02 0.24208339530E+02 0.19651156809E+02
 0.16638004076E+02 0.14321860900E+02 0.12606925389E+02 0.11403034087E+02 0.10591370750E+02
 0.10112631319E+02 0.99129179960E+01 0.99855982557E+01 0.10322426359E+02 0.10956851707E+02
 0.11929885841E+02 0.13334191452E+02 0.15259997286E+02 0.17835687058E+02 0.21073905585E+02
 0.26224766036E+02 0.32423671436E+02 0.40376916705E+02 0.50234216548E+02 0.61871153282E+02
 0.74786371866E+02 0.57851866290E+02 0.65099947121E+02 0.70847667564E+02 0.74238070740E+02
 0.74716344160E+02 0.72188719012E+02 0.67079717614E+02 0.60165181414E+02 0.52366104458E+02
 0.44523532245E+02 0.37257313612E+02 0.30908958999E+02 0.25626754042E+02 0.20945969659E+02
 0.17913403109E+02 0.15426206756E+02 0.13487277351E+02 0.12032004870E+02 0.10980032310E+02
 0.10253876632E+02 0.98011049328E+01 0.95850354095E+01 0.95855988564E+01 0.98018704487E+01
 0.10244601619E+02 0.10939449839E+02 0.11929885841E+02 0.13290544965E+02 0.15090285934E+02
 0.17417365557E+02 0.20277582635E+02 0.24493672219E+02 0.29421042590E+02 0.35374847957E+02
 0.42333095990E+02 0.50004621723E+02 0.39695541706E+02 0.44143311296E+02 0.47813215421E+02
 0.50228760352E+02 0.51045673512E+02 0.50140529219E+02 0.47635662260E+02 0.43886293496E+02
 0.39368906048E+02 0.34567102425E+02 0.29893170119E+02 0.25626754042E+02 0.21903081562E+02
 0.18635998825E+02 0.16223188108E+02 0.14237576273E+02 0.12663847007E+02 0.11463592416E+02
 0.10573644861E+02 0.99442715607E+01 0.95365459274E+01 0.93256021058E+01 0.92941405363E+01
 0.94316673733E+01 0.97438839372E+01 0.10244601619E+02 0.10956851707E+02 0.11911167052E+02
 0.13168214073E+02 0.14774251990E+02 0.16780795914E+02 0.19203965571E+02 0.22433582902E+02
 0.26145346450E+02 0.30363843373E+02 0.34966218206E+02 0.28677762550E+02 0.31402893108E+02
 0.33719302070E+02 0.35370188297E+02 0.36136324193E+02 0.35905166047E+02 0.34707967714E+02
 0.32691457746E+02 0.30091209259E+02 0.27186334564E+02 0.24208339530E+02 0.20945969659E+02
 0.18635998825E+02 0.16513171464E+02 0.14667362332E+02 0.13125067082E+02 0.11887752538E+02
 0.10923817841E+02 0.10197182403E+02 0.96747770363E+01 0.93300462530E+01 0.91432510422E+01
 0.91023473690E+01 0.92010429872E+01 0.94316673733E+01 0.98018704487E+01 0.10322426359E+02
 0.11014835974E+02 0.11895489082E+02 0.13004975762E+02 0.14374623292E+02 0.16017023486E+02
 0.17962891826E+02 0.20113660030E+02 0.22934017903E+02 0.25785172349E+02 0.21478853544E+02
 0.23560414983E+02 0.25043894555E+02 0.26140571793E+02 0.26734187880E+02 0.26753516232E+02
 0.26180447904E+02 0.25078987977E+02 0.23561879414E+02 0.21778240648E+02 0.19651156809E+02
 0.17913403109E+02 0.16223188108E+02 0.14667362332E+02 0.13293861995E+02 0.12133403274E+02
 0.11185656793E+02 0.10435765260E+02 0.98648533380E+01 0.94537157474E+01 0.91852474612E+01
 0.90435499641E+01 0.90180986777E+01 0.91023473690E+01 0.92941405363E+01 0.95855988564E+01
 0.99855982557E+01 0.10494984064E+02 0.11133272134E+02 0.11908442994E+02 0.12840739569E+02
 0.13955195609E+02 0.15232245649E+02 0.16687676613E+02 0.18281819675E+02 0.19908921927E+02
 0.17668148231E+02 0.18656849129E+02 0.19491834006E+02 0.20109903324E+02 0.20458594934E+02
 0.20501507839E+02 0.20237884645E+02 0.19674175907E+02 0.18844824234E+02 0.17810736900E+02
 0.16638004076E+02 0.15426206756E+02 0.14237576273E+02 0.13125067082E+02 0.12133403274E+02
 0.11282066557E+02 0.10577824497E+02 0.10016706729E+02 0.95917676709E+01 0.92927452590E+01
 0.91091462045E+01 0.90295532306E+01 0.90435499641E+01 0.91432510422E+01 0.93256021058E+01
 0.95850354095E+01 0.99129179960E+01 0.10320040605E+02 0.10797732517E+02 0.11358193380E+02
 0.12005322079E+02 0.12740038715E+02 0.13588473715E+02 0.14526365674E+02 0.15535750215E+02
 0.16599913099E+02 0.15210464747E+02 0.15796364509E+02 0.16303256842E+02 0.16684599572E+02
 0.16903623555E+02 0.16932520969E+02 0.16747832231E+02 0.16363756514E+02 0.15804621612E+02
 0.15108741086E+02 0.14321860900E+02 0.13487277351E+02 0.12663847007E+02 0.11887752538E+02
 0.11185656793E+02 0.10577824497E+02 0.10074439529E+02 0.96789536899E+01 0.93899509919E+01
 0.92028912875E+01 0.91118741574E+01 0.91091462045E+01 0.91852474612E+01 0.93300462530E+01
 0.95365459274E+01 0.98011049328E+01 0.10112631319E+02 0.10458880383E+02 0.10848538091E+02
 0.11270509197E+02 0.11730712395E+02 0.12233133606E+02 0.12763883690E+02 0.13339322469E+02
 0.13956261638E+02 0.14588423826E+02 0.13890368014E+02 0.14155776414E+02 0.14374262834E+02
 0.14524497672E+02 0.14579108934E+02 0.14519977095E+02 0.14348356347E+02 0.14055746288E+02
 0.13650963225E+02 0.13161519000E+02 0.12606925389E+02 0.12032004870E+02 0.11463592416E+02
 0.10923817841E+02 0.10435765260E+02 0.10016706729E+02 0.96789536899E+01 0.94281262732E+01
 0.92662027585E+01 0.91922647144E+01 0.92028912875E+01 0.92927452590E+01 0.94537157474E+01
 0.96747770363E+01 0.99442715607E+01 0.10253876632E+02 0.10591370750E+02 0.10944946690E+02
 0.11300225752E+02 0.11653133028E+02 0.11996094440E+02 0.12326206170E+02 0.12657888566E+02
 0.12978611647E+02 0.13288586107E+02 0.13594809719E+02 0.13470189595E+02 0.13458723796E+02
 0.13416756715E+02 0.13338438100E+02 0.13220541794E+02 0.13055455087E+02 0.12822870547E+02
 0.12534784765E+02 0.12193683974E+02 0.11810224861E+02 0.11403034087E+02 0.10980032310E+02
 0.10573644861E+02 0.10197182403E+02 0.98648533380E+01 0.95917676709E+01 0.93899509919E+01
 0.92662027585E+01 0.92247612923E+01 0.92662027585E+01 0.93899509919E+01 0.95917676709E+01
 0.98648533380E+01 0.10197182403E+02 0.10573644861E+02 0.10980032310E+02 0.11403034087E+02
 0.11810224861E+02 0.12193683974E+02 0.12534784765E+02 0.12822870547E+02 0.13055455087E+02
 0.13220541794E+02 0.13338438100E+02 0.13416756715E+02 0.13458723796E+02 0.13890368014E+02
 0.13594809719E+02 0.13288586107E+02 0.12978611647E+02 0.12657888566E+02 0.12326206170E+02
 0.11996094440E+02 0.11653133028E+02 0.11300225752E+02 0.10944946690E+02 0.10591370750E+02
 0.10253876632E+02 0.99442715607E+01 0.96747770363E+01 0.94537157474E+01 0.92927452590E+01
 0.92028912875E+01 0.91922647144E+01 0.92662027585E+01 0.94281262732E+01 0.96789536899E+01
 0.10016706729E+02 0.10435765260E+02 0.10923817841E+02 0.11463592416E+02 0.12032004870E+02
 0.12606925389E+02 0.13161519000E+02 0.13650963225E+02 0.14055746288E+02 0.14348356347E+02
 0.14519977095E+02 0.14579108934E+02 0.14524497672E+02 0.14374262834E+02 0.14155776414E+02
 0.15210464747E+02 0.14588423826E+02 0.13956261638E+02 0.13339322469E+02 0.12763883690E+02
 0.12233133606E+02 0.11730712395E+02 0.11270509197E+02 0.10848538091E+02 0.10458880383E+02
 0.10112631319E+02 0.98011049328E+01 0.95365459274E+01 0.93300462530E+01 0.91852474612E+01
 0.91091462045E+01 0.91118741574E+01 0.92028912875E+01 0.93899509919E+01 0.96789536899E+01
 0.10074439529E+02 0.10577824497E+02 0.11185656793E+02 0.11887752538E+02 0.12663847007E+02
 0.13487277351E+02 0.14321860900E+02 0.15108741086E+02 0.15804621612E+02 0.16363756514E+02
 0.16747832231E+02 0.16932520969E+02 0.16903623555E+02 0.16684599572E+02 0.16303256842E+02
 0.15796364509E+02 0.17668148231E+02 0.16599913099E+02 0.15535750215E+02 0.14526365674E+02
 0.13588473715E+02 0.12740038715E+02 0.12005322079E+02 0.11358193380E+02 0.10797732517E+02
 0.10320040605E+02 0.99129179960E+01 0.95850354095E+01 0.93256021058E+01 0.91432510422E+01
 0.90435499641E+01 0.90295532306E+01 0.91091462045E+01 0.92927452590E+01 0.95917676709E+01
 0.10016706729E+02 0.10577824497E+02 0.11282066557E+02 0.12133403274E+02 0.13125067082E+02
 0.14237576273E+02 0.15426206756E+02 0.16638004076E+02 0.17810736900E+02 0.18844824234E+02
 0.19674175907E+02 0.20237884645E+02 0.20501507839E+02 0.20458594934E+02 0.20109903324E+02
 0.19491834006E+02 0.18656849129E+02 0.21478853544E+02 0.19908921927E+02 0.18281819675E+02
 0.16687676613E+02 0.15232245649E+02 0.13955195609E+02 0.12840739569E+02 0.11908442994E+02
 0.11133272134E+02 0.10494984064E+02 0.99855982557E+01 0.95855988564E+01 0.92941405363E+01
 0.91023473690E+01 0.90180986777E+01 0.90435499641E+01 0.91852474612E+01 0.94537157474E+01
 0.98648533380E+01 0.10435765260E+02 0.11185656793E+02 0.12133403274E+02 0.13293861995E+02
 0.14667362332E+02 0.16223188108E+02 0.17913403109E+02 0.19651156809E+02 0.21778240648E+02
 0.23561879414E+02 0.25078987977E+02 0.26180447904E+02 0.26753516232E+02 0.26734187880E+02
 0.26140571793E+02 0.25043894555E+02 0.23560414983E+02 0.28677762550E+02 0.25785172349E+02
 0.22934017903E+02 0.20113660030E+02 0.17962891826E+02 0.16017023486E+02 0.14374623292E+02
 0.13004975762E+02 0.11895489082E+02 0.11014835974E+02 0.10322426359E+02 0.98018704487E+01
 0.94316673733E+01 0.92010429872E+01 0.91023473690E+01 0.91432510422E+01 0.93300462530E+01
 0.96747770363E+01 0.10197182403E+02 0.10923817841E+02 0.11887752538E+02 0.13125067082E+02
 0.14667362332E+02 0.16513171464E+02 0.18635998825E+02 0.20945969659E+02 0.24208339530E+02
 0.27186334564E+02 0.30091209259E+02 0.32691457746E+02 0.34707967714E+02 0.35905166047E+02
 0.36136324193E+02 0.35370188297E+02 0.33719302070E+02 0.31402893108E+02 0.39695541706E+02
 0.34966218206E+02 0.30363843373E+02 0.26145346450E+02 0.22433582902E+02 0.19203965571E+02
 0.16780795914E+02 0.14774251990E+02 0.13168214073E+02 0.11911167052E+02 0.10956851707E+02
 0.10244601619E+02 0.97438839372E+01 0.94316673733E+01 0.92941405363E+01 0.93256021058E+01
 0.95365459274E+01 0.99442715607E+01 0.10573644861E+02 0.11463592416E+02 0.12663847007E+02
 0.14237576273E+02 0.16223188108E+02 0.18635998825E+02 0.21903081562E+02 0.25626754042E+02
 0.29893170119E+02 0.34567102425E+02 0.39368906048E+02 0.43886293496E+02 0.47635662260E+02
 0.50140529219E+02 0.51045673512E+02 0.50228760352E+02 0.47813215421E+02 0.44143311296E+02
 0.57851866290E+02 0.50004621723E+02 0.42333095990E+02 0.35374847957E+02 0.29421042590E+02
 0.24493672219E+02 0.20277582635E+02 0.17417365557E+02 0.15090285934E+02 0.13290544965E+02
 0.11929885841E+02 0.10939449839E+02 0.10244601619E+02 0.98018704487E+01 0.95855988564E+01
 0.95850354095E+01 0.98011049328E+01 0.10253876632E+02 0.10980032310E+02 0.12032004870E+02
 0.13487277351E+02 0.15426206756E+02 0.17913403109E+02 0.20945969659E+02 0.25626754042E+02
 0.30908958999E+02 0.37257313612E+02 0.44523532245E+02 0.52366104458E+02 0.60165181414E+02
 0.67079717614E+02 0.72188719012E+02 0.74716344160E+02 0.74238070740E+02 0.70847667564E+02
 0.65099947121E+02 0.87959463956E+02 0.74786371866E+02 0.61871153282E+02 0.50234216548E+02
 0.40376916705E+02 0.32423671436E+02 0.26224766036E+02 0.21073905585E+02 0.17835687058E+02
 0.15259997286E+02 0.13334191452E+02 0.11929885841E+02 0.10956851707E+02 0.10322426359E+02
 0.99855982557E+01 0.99129179960E+01 0.10112631319E+02 0.10591370750E+02 0.11403034087E+02
 0.12606925389E+02 0.14321860900E+02 0.16638004076E+02 0.19651156809E+02 0.24208339530E+02
 0.29893170119E+02 0.37257313612E+02 0.46479979140E+02 0.57584693201E+02 0.70201831982E+02
 0.83474395754E+02 0.96036237253E+02 0.10618384462E+03 0.11226246753E+03 0.11319163074E+03
 0.10879205201E+03 0.99876663030E+02 0.13817383565E+03 0.11599411380E+03 0.93992710494E+02
 0.74245471199E+02 0.57764779542E+02 0.44715449315E+02 0.34754221452E+02 0.27382683252E+02
 0.21959987983E+02 0.17984697229E+02 0.15259997286E+02 0.13290544965E+02 0.11911167052E+02
 0.11014835974E+02 0.10494984064E+02 0.10320040605E+02 0.10458880383E+02 0.10944946690E+02
 0.11810224861E+02 0.13161519000E+02 0.15108741086E+02 0.17810736900E+02 0.21778240648E+02
 0.27186334564E+02 0.34567102425E+02 0.44523532245E+02 0.57584693201E+02 0.74089656547E+02
 0.93848264285E+02 0.11586933753E+03 0.13807450937E+03 0.15751071081E+03 0.17091582580E+03
 0.17572279836E+03 0.17094527356E+03 0.15757646620E+03 0.22100720748E+03 0.18411531380E+03
 0.14679901262E+03 0.11319652983E+03 0.85392002628E+02 0.63772509307E+02 0.47686157058E+02
 0.36037750307E+02 0.27787202593E+02 0.21959987983E+02 0.17835687058E+02 0.15090285934E+02
 0.13168214073E+02 0.11895489082E+02 0.11133272134E+02 0.10797732517E+02 0.10848538091E+02
 0.11300225752E+02 0.12193683974E+02 0.13650963225E+02 0.15804621612E+02 0.18844824234E+02
 0.23561879414E+02 0.30091209259E+02 0.39368906048E+02 0.52366104458E+02 0.70201831982E+02
 0.93848264285E+02 0.12371517903E+03 0.15890338973E+03 0.19666161769E+03 0.23219738887E+03
 0.25955068533E+03 0.27330298735E+03 0.27049703681E+03 0.25174279435E+03 0.35296672508E+03
 0.29408749427E+03 0.23223421526E+03 0.17572852593E+03 0.12906223244E+03 0.93246224373E+02
 0.67126810683E+02 0.48745571977E+02 0.36037750307E+02 0.27382683252E+02 0.21073905585E+02
 0.17417365557E+02 0.14774251990E+02 0.13004975762E+02 0.11908442994E+02 0.11358193380E+02
 0.11270509197E+02 0.11653133028E+02 0.12534784765E+02 0.14055746288E+02 0.16363756514E+02
 0.19674175907E+02 0.25078987977E+02 0.32691457746E+02 0.43886293496E+02 0.60165181414E+02
 0.83474395754E+02 0.11586933753E+03 0.15890338973E+03 0.21244266529E+03 0.27326721135E+03
 0.33426064283E+03 0.38538330073E+03 0.41658749586E+03 0.42127735396E+03 0.39844359389E+03
 0.54583605507E+03 0.46087287901E+03 0.36474339919E+03 0.27330639066E+03 0.19670196522E+03
 0.13812109403E+03 0.96089319196E+02 0.67126810683E+02 0.47686157058E+02 0.34754221452E+02
 0.26224766036E+02 0.20277582635E+02 0.16780795914E+02 0.14374623292E+02 0.12840739569E+02
 0.12005322079E+02 0.11730712395E+02 0.11996094440E+02 0.12822870547E+02 0.14348356347E+02
 0.16747832231E+02 0.20237884645E+02 0.26180447904E+02 0.34707967714E+02 0.47635662260E+02
 0.67079717614E+02 0.96036237253E+02 0.13807450937E+03 0.19666161769E+03 0.27326721135E+03
 0.36471422907E+03 0.46085460682E+03 0.54582390137E+03 0.60358159210E+03 0.62389288435E+03
 0.60358716876E+03 0.77485416073E+03 0.68017211606E+03 0.55200574121E+03 0.41659204986E+03
 0.29718940258E+03 0.20439864319E+03 0.13812109403E+03 0.93246224373E+02 0.63772509307E+02
 0.44715449315E+02 0.32423671436E+02 0.24493672219E+02 0.19203965571E+02 0.16017023486E+02
 0.13955195609E+02 0.12740038715E+02 0.12233133606E+02 0.12326206170E+02 0.13055455087E+02
 0.14519977095E+02 0.16932520969E+02 0.20501507839E+02 0.26753516232E+02 0.35905166047E+02
 0.50140529219E+02 0.72188719012E+02 0.10618384462E+03 0.15751071081E+03 0.23219738887E+03
 0.33426064283E+03 0.46085460682E+03 0.59691417789E+03 0.71646813446E+03 0.79625013566E+03
 0.83038190344E+03 0.82377023969E+03 0.90840841018E+03 0.87715976839E+03 0.76761408754E+03
 0.60358882951E+03 0.43567463117E+03 0.29718940258E+03 0.19670196522E+03 0.12906223244E+03
 0.85392002628E+02 0.57764779542E+02 0.40376916705E+02 0.29421042590E+02 0.22433582902E+02
 0.17962891826E+02 0.15232245649E+02 0.13588473715E+02 0.12763883690E+02 0.12657888566E+02
 0.13220541794E+02 0.14579108934E+02 0.16903623555E+02 0.20458594934E+02 0.26734187880E+02
 0.36136324193E+02 0.51045673512E+02 0.74716344160E+02 0.11226246753E+03 0.17091582580E+03
 0.25955068533E+03 0.38538330073E+03 0.54582390137E+03 0.71646813446E+03 0.84936979247E+03
 0.90545720182E+03 0.90327860497E+03 0.90008310563E+03 0.70175203024E+03 0.85099742608E+03
 0.90545902002E+03 0.79625335598E+03 0.60358882951E+03 0.41659204986E+03 0.27330639066E+03
 0.17572852593E+03 0.11319652983E+03 0.74245471199E+02 0.50234216548E+02 0.35374847957E+02
 0.26145346450E+02 0.20113660030E+02 0.16687676613E+02 0.14526365674E+02 0.13339322469E+02
 0.12978611647E+02 0.13338438100E+02 0.14524497672E+02 0.16684599572E+02 0.20109903324E+02
 0.26140571793E+02 0.35370188297E+02 0.50228760352E+02 0.74238070740E+02 0.11319163074E+03
 0.17572279836E+03 0.27330298735E+03 0.41658749586E+03 0.60358159210E+03 0.79625013566E+03
 0.90545720182E+03 0.85099114272E+03 0.70174564181E+03 0.62993519595E+03 0.51558062165E+03
 0.50524910876E+03 0.79776940824E+03 0.90545902002E+03 0.76761408754E+03 0.55200574121E+03
 0.36474339919E+03 0.23223421526E+03 0.14679901262E+03 0.93992710494E+02 0.61871153282E+02
 0.42333095990E+02 0.30363843373E+02 0.22934017903E+02 0.18281819675E+02 0.15535750215E+02
 0.13956261638E+02 0.13288586107E+02 0.13416756715E+02 0.14374262834E+02 0.16303256842E+02
 0.19491834006E+02 0.25043894555E+02 0.33719302070E+02 0.47813215421E+02 0.70847667564E+02
 0.10879205201E+03 0.17094527356E+03 0.27049703681E+03 0.42127735396E+03 0.62389288435E+03
 0.83038190344E+03 0.90327860497E+03 0.70174564181E+03 0.45613904708E+03 0.57679062164E+03
 0.33304101340E+04 0.98538743624E+03 0.50524910876E+03 0.85099742608E+03 0.87715976839E+03
 0.68017211606E+03 0.46087287901E+03 0.29408749427E+03 0.18411531380E+03 0.11599411380E+03
 0.74786371866E+02 0.50004621723E+02 0.34966218206E+02 0.25785172349E+02 0.19908921927E+02
 0.16599913099E+02 0.14588423826E+02 0.13594809719E+02 0.13458723796E+02 0.14155776414E+02
 0.15796364509E+02 0.18656849129E+02 0.23560414983E+02 0.31402893108E+02 0.44143311296E+02
 0.65099947121E+02 0.99876663030E+02 0.15757646620E+03 0.25174279435E+03 0.39844359389E+03
 0.60358716876E+03 0.82377023969E+03 0.90008310563E+03 0.62993519595E+03 0.57679062164E+03
 0.26051691013E+04 0.34259320302E+04 0.16232894647E+04 0.45226000965E+03 0.76107846488E+03
 0.90567211014E+03 0.75394327577E+03 0.52840764433E+03 0.34206825717E+03 0.21484690337E+03
 0.13480874173E+03 0.86134916500E+02 0.56849766459E+02 0.39132482694E+02 0.28352239454E+02
 0.21306217353E+02 0.17544272570E+02 0.15124208116E+02 0.13821361826E+02 0.13408829779E+02
 0.13821361826E+02 0.15124208116E+02 0.17544272570E+02 0.21306217353E+02 0.28352239454E+02
 0.39132482694E+02 0.56849766459E+02 0.86134916500E+02 0.13480874173E+03 0.21484690337E+03
 0.34206825717E+03 0.52840764433E+03 0.75394327577E+03 0.90567211014E+03 0.76107846488E+03
 0.45226000965E+03 0.16232894647E+04 0.16232894647E+04 0.12728657144E+04 0.45982206745E+03
 0.69905607641E+03 0.90712976345E+03 0.80410619125E+03 0.58457031842E+03 0.38591557509E+03
 0.24449649929E+03 0.15357976483E+03 0.97701860831E+02 0.63909959588E+02 0.43477360916E+02
 0.31022329524E+02 0.23330770671E+02 0.18520701469E+02 0.15701255500E+02 0.14083207623E+02
 0.13396626170E+02 0.13530043413E+02 0.14510588220E+02 0.16491849136E+02 0.19757224969E+02
 0.25513846033E+02 0.34508894212E+02 0.49197701579E+02 0.73333784149E+02 0.11332842758E+03
 0.17922857654E+03 0.28532007117E+03 0.44617009430E+03 0.65959083260E+03 0.86184415138E+03
 0.87736165174E+03 0.57567995571E+03 0.58605468519E+03 0.45226000965E+03 0.45982206745E+03
 0.50262124294E+03 0.76107214025E+03 0.90811781433E+03 0.81102509957E+03 0.60438942185E+03
 0.40794272443E+03 0.26258015430E+03 0.16650347012E+03 0.10634904429E+03 0.69504211124E+02
 0.47060362275E+02 0.33289897861E+02 0.24786283192E+02 0.19345630075E+02 0.16199568916E+02
 0.14299352777E+02 0.13354443785E+02 0.13228690371E+02 0.13885744422E+02 0.15443637461E+02
 0.18149482281E+02 0.22715709002E+02 0.30003528483E+02 0.41708748788E+02 0.60765108598E+02
 0.91991854236E+02 0.14315388878E+03 0.22567831704E+03 0.35342064146E+03 0.53439427194E+03
 0.74662953358E+03 0.89822473361E+03 0.83813470022E+03 0.57567995571E+03 0.76107846488E+03
 0.69905607641E+03 0.76107214025E+03 0.87735603761E+03 0.89822414023E+03 0.77570449336E+03
 0.58456548605E+03 0.40341965895E+03 0.26528570459E+03 0.17112097636E+03 0.11061306526E+03
 0.72801667933E+02 0.49416676376E+02 0.34904633485E+02 0.25862558524E+02 0.19956806358E+02
 0.16574590381E+02 0.14447405795E+02 0.13275757987E+02 0.12922643953E+02 0.13276603092E+02
 0.14448840055E+02 0.16576485705E+02 0.19959152831E+02 0.25865638919E+02 0.34907465158E+02
 0.49419979007E+02 0.72807242413E+02 0.11061600937E+03 0.17112489188E+03 0.26528735686E+03
 0.40342197487E+03 0.58457141296E+03 0.77570673322E+03 0.89822473361E+03 0.87736165174E+03
 0.90567211014E+03 0.90712976345E+03 0.90811781433E+03 0.89822414023E+03 0.83116554343E+03
 0.69547968088E+03 0.52839731528E+03 0.37332052550E+03 0.25202589249E+03 0.16647496414E+03
 0.10971306783E+03 0.73266614143E+02 0.50213684664E+02 0.35653709137E+02 0.26445096756E+02
 0.20300234621E+02 0.16790428522E+02 0.14500586840E+02 0.13159816813E+02 0.12604988104E+02
 0.12708822900E+02 0.13521858817E+02 0.15142930708E+02 0.17833804021E+02 0.22223518476E+02
 0.29078476475E+02 0.39795747625E+02 0.56762525589E+02 0.83639439926E+02 0.12598565499E+03
 0.19138330965E+03 0.28830941288E+03 0.42183480183E+03 0.58457141296E+03 0.74662953358E+03
 0.86184415138E+03 0.75394327577E+03 0.80410619125E+03 0.81102509957E+03 0.77570449336E+03
 0.69547968088E+03 0.57806460746E+03 0.44615446729E+03 0.32404031781E+03 0.22564566233E+03
 0.15351560396E+03 0.10382049151E+03 0.70807580187E+02 0.49330935669E+02 0.35426865159E+02
 0.26464152624E+02 0.20342769959E+02 0.16818780014E+02 0.14441429479E+02 0.12995711200E+02
 0.12276891003E+02 0.12184366385E+02 0.12684844419E+02 0.13882461649E+02 0.15915412124E+02
 0.19058629371E+02 0.24243357055E+02 0.32017858587E+02 0.44033393239E+02 0.62613968358E+02
 0.91266854627E+02 0.13475531917E+03 0.19881515649E+03 0.28830941288E+03 0.40342197487E+03
 0.53439427194E+03 0.65959083260E+03 0.52840764433E+03 0.58457031842E+03 0.60438942185E+03
 0.58456548605E+03 0.52839731528E+03 0.44615446729E+03 0.35339379918E+03 0.26525100544E+03
 0.19134739503E+03 0.13471210137E+03 0.93976947464E+02 0.65836390127E+02 0.46887206624E+02
 0.34255630900E+02 0.25901245340E+02 0.20082606979E+02 0.16636168162E+02 0.14272580525E+02
 0.12765889374E+02 0.11951010933E+02 0.11686661509E+02 0.11959139128E+02 0.12781978609E+02
 0.14296094471E+02 0.16666293797E+02 0.20118925795E+02 0.25942040108E+02 0.34297511960E+02
 0.46933285887E+02 0.65878422874E+02 0.94025248452E+02 0.13475531917E+03 0.19138330965E+03
 0.26528735686E+03 0.35342064146E+03 0.44617009430E+03 0.34206825717E+03 0.38591557509E+03
 0.40794272443E+03 0.40341965895E+03 0.37332052550E+03 0.32404031781E+03 0.26525100544E+03
 0.20658351505E+03 0.15486275166E+03 0.11320812326E+03 0.81780160426E+02 0.59101423410E+02
 0.43226310136E+02 0.32281419295E+02 0.24820740046E+02 0.19525569741E+02 0.16257905293E+02
 0.13981998490E+02 0.12480935891E+02 0.11610808419E+02 0.11232961217E+02 0.11318919635E+02
 0.11861846237E+02 0.12943672814E+02 0.14688887383E+02 0.17294026222E+02 0.20902935283E+02
 0.27077990752E+02 0.35552438823E+02 0.47967719779E+02 0.65878422874E+02 0.91266854627E+02
 0.12598565499E+03 0.17112489188E+03 0.22567831704E+03 0.28532007117E+03 0.21484690337E+03
 0.24449649929E+03 0.26258015430E+03 0.26528570459E+03 0.25202589249E+03 0.22564566233E+03
 0.19134739503E+03 0.15486275166E+03 0.12080866974E+03 0.91854388520E+02 0.68873200309E+02
 0.51501575948E+02 0.38814078622E+02 0.29736687859E+02 0.23332029241E+02 0.18707160589E+02
 0.15708145807E+02 0.13583883832E+02 0.12145420663E+02 0.11261945847E+02 0.10814511158E+02
 0.10764556174E+02 0.11095813533E+02 0.11848247798E+02 0.13103676808E+02 0.14999986150E+02
 0.17706375072E+02 0.21325038620E+02 0.27474450338E+02 0.35552438823E+02 0.46933285887E+02
 0.62613968358E+02 0.83639439926E+02 0.11061600937E+03 0.14315388878E+03 0.17922857654E+03
 0.13480874173E+03 0.15357976483E+03 0.16650347012E+03 0.17112097636E+03 0.16647496414E+03