       N       E                     dE             d eps       ncg     rms          rms(c)
DAV:   1     0.742597049871E+03    0.74260E+03   -0.32996E+04 34618   0.265E+03
DAV:   2     0.446313544440E+02   -0.69797E+03   -0.68463E+03 33052   0.703E+02
DAV:   3    -0.142348695626E+02   -0.58866E+02   -0.57380E+02 36038   0.213E+02
DAV:   4    -0.159342856044E+02   -0.16994E+01   -0.16865E+01 37672   0.377E+01
DAV:   5    -0.159731568003E+02   -0.38871E-01   -0.38884E-01 41810   0.578E+00    0.315E+01
DAV:   6    -0.136652008411E+02    0.23080E+01   -0.28020E+01 33768   0.537E+01    0.152E+01
DAV:   7    -0.158469861364E+02   -0.21818E+01   -0.33045E+00 38046   0.150E+01    0.867E+00
DAV:   8    -0.162241152230E+02   -0.37713E+00   -0.68047E-01 38468   0.566E+00    0.339E+00
DAV:   9    -0.164568589485E+02   -0.23274E+00   -0.72212E-01 40646   0.404E+00    0.126E+00
DAV:  10    -0.165314927578E+02   -0.74634E-01   -0.17742E-01 40124   0.208E+00    0.891E-01
DAV:  11    -0.165988674608E+02   -0.67375E-01   -0.26927E-01 45848   0.216E+00    0.541E-01
DAV:  12    -0.166217187534E+02   -0.22851E-01   -0.95558E-02 39768   0.129E+00    0.336E-01
DAV:  13    -0.166296419788E+02   -0.79232E-02   -0.31225E-02 43280   0.631E-01    0.200E-01
DAV:  14    -0.166345036387E+02   -0.48617E-02   -0.42226E-02 39872   0.724E-01    0.112E-01
DAV:  15    -0.166356607886E+02   -0.11571E-02   -0.33876E-03 38914   0.302E-01    0.701E-02
DAV:  16    -0.166358858540E+02   -0.22507E-03   -0.46611E-04 38660   0.138E-01    0.418E-02
DAV:  17    -0.166359980707E+02   -0.11222E-03   -0.43345E-04 42814   0.884E-02    0.214E-02
DAV:  18    -0.166360753829E+02   -0.77312E-04   -0.83199E-04 39644   0.880E-02    0.173E-02
DAV:  19    -0.166360918323E+02   -0.16449E-04   -0.69472E-05 37522   0.373E-02    0.122E-02
DAV:  20    -0.166360973650E+02   -0.55327E-05   -0.17577E-04 37320   0.427E-02    0.969E-03
DAV:  21    -0.166360947788E+02    0.25862E-05   -0.43541E-05 35292   0.310E-02    0.485E-03
DAV:  22    -0.166360960076E+02   -0.12288E-05   -0.22651E-06 24622   0.135E-02    0.222E-03
DAV:  23    -0.166360951577E+02    0.84992E-06   -0.79453E-07 17698   0.696E-03
   1 F= -.16636095E+02 E0= -.16636095E+02  d E =0.000000E+00  mag=     0.0000
