       N       E                     dE             d eps       ncg     rms          rms(c)
DAV:   1     0.855140101658E+03    0.85514E+03   -0.25326E+04 27592   0.270E+03
DAV:   2     0.201080533674E+03   -0.65406E+03   -0.49540E+03 29352   0.390E+02
DAV:   3    -0.197355628079E+01   -0.20305E+03   -0.19459E+03 23812   0.220E+02
DAV:   4    -0.270871232792E+02   -0.25114E+02   -0.23786E+02 33184   0.689E+01
DAV:   5    -0.295343961479E+02   -0.24473E+01   -0.23635E+01 40988   0.228E+01    0.224E+01
DAV:   6    -0.442803617301E+02   -0.14746E+02   -0.57501E+01 28520   0.709E+01    0.303E+01
DAV:   7    -0.426228028738E+02    0.16576E+01   -0.90124E+00 29496   0.185E+01    0.108E+01
DAV:   8    -0.410153689020E+02    0.16074E+01   -0.33289E+00 31564   0.139E+01    0.344E+00
DAV:   9    -0.410719273800E+02   -0.56558E-01   -0.16939E+00 32180   0.105E+01    0.385E+00
DAV:  10    -0.410496570065E+02    0.22270E-01   -0.32899E-01 34884   0.388E+00    0.125E+00
DAV:  11    -0.411204201012E+02   -0.70763E-01   -0.56355E-02 40940   0.117E+00    0.652E-01
DAV:  12    -0.411623693012E+02   -0.41949E-01   -0.39335E-02 31864   0.944E-01    0.589E-01
DAV:  13    -0.411651567018E+02   -0.27874E-02   -0.19475E-02 32060   0.931E-01    0.177E-01
DAV:  14    -0.411652002807E+02   -0.43579E-04   -0.66741E-03 38488   0.294E-01    0.102E-01
DAV:  15    -0.411647753226E+02    0.42496E-03   -0.74685E-04 37464   0.105E-01    0.859E-02
DAV:  16    -0.411649786470E+02   -0.20332E-03   -0.41588E-04 35612   0.133E-01    0.242E-02
DAV:  17    -0.411653335271E+02   -0.35488E-03   -0.19557E-04 33996   0.497E-02    0.104E-02
DAV:  18    -0.411653247338E+02    0.87933E-05   -0.17014E-05 39728   0.185E-02    0.295E-03
DAV:  19    -0.411653178974E+02    0.68364E-05   -0.17451E-06 35440   0.560E-03    0.206E-03
DAV:  20    -0.411653282861E+02   -0.10389E-04   -0.15021E-07 21512   0.251E-03    0.105E-03
DAV:  21    -0.411653312258E+02   -0.29397E-05   -0.61219E-08 14124   0.128E-03    0.786E-04
DAV:  22    -0.411653298413E+02    0.13845E-05   -0.18355E-08 13144   0.125E-03    0.303E-04
DAV:  23    -0.411653301148E+02   -0.27352E-06   -0.11851E-08 13004   0.596E-04    0.131E-04
DAV:  24    -0.411653306664E+02   -0.55152E-06   -0.60440E-09 12912   0.560E-04    0.158E-04
DAV:  25    -0.411653306703E+02   -0.39108E-08   -0.41370E-09 12856   0.499E-04
   1 F= -.41165331E+02 E0= -.41165331E+02  d E =0.000000E+00  mag=    29.9286
