=========================================
SLURM_JOB_ID = 51706454
SLURM_JOB_NODELIST = lnode53
SLURM_GPUS = 
SLURM_CPUS_ON_NODE = 24
SLURM_JOB_PARTITION = lenovo
SLURM_TASK_PID = 485118
CUDA_VISIBLE_DEVICES = 
==========================================
 running on   24 total cores
 distrk:  each k-point on   24 cores,    1 groups
 distr:  one band on    4 cores,    6 groups
 using from now: INCAR     
 vasp.5.4.4.18Apr17-6-g9f103f2a35 (build Apr 28 2018 00:24:27) complex          
  
 POSCAR found type information on POSCAR  Fe O 
 POSCAR found :  2 types and      30 ions
 scaLAPACK will be used
 LDA part: xc-table for Pade appr. of Perdew
 POSCAR, INCAR and KPOINTS ok, starting setup
 FFT: planning ...
 WAVECAR not read
 entering main loop
       N       E                     dE             d eps       ncg     rms          rms(c)
DAV:   1     0.425470408401E+04    0.42547E+04   -0.14068E+05 11628   0.193E+03
DAV:   2     0.432202428874E+03   -0.38225E+04   -0.34719E+04 11424   0.547E+02
DAV:   3    -0.252205167143E+03   -0.68441E+03   -0.61281E+03 11928   0.231E+02
DAV:   4    -0.293949003597E+03   -0.41744E+02   -0.41275E+02 12972   0.570E+01
DAV:   5    -0.294402402493E+03   -0.45340E+00   -0.45235E+00 12792   0.673E+00    0.809E+01
DAV:   6    -0.235297069633E+03    0.59105E+02   -0.25362E+02 14772   0.808E+01    0.914E+01
DAV:   7    -0.211147692647E+03    0.24149E+02   -0.11482E+02 12204   0.633E+01    0.438E+01
DAV:   8    -0.218253136863E+03   -0.71054E+01   -0.21409E+01 12132   0.170E+01    0.264E+01
DAV:   9    -0.222520159852E+03   -0.42670E+01   -0.83809E+00 12672   0.172E+01    0.277E+01
DAV:  10    -0.222083659093E+03    0.43650E+00   -0.25012E+00 12528   0.701E+00    0.187E+01
DAV:  11    -0.221501053120E+03    0.58261E+00   -0.24529E-01 14160   0.287E+00    0.122E+01
DAV:  12    -0.221299724349E+03    0.20133E+00   -0.19597E-01 15192   0.239E+00    0.852E+00
DAV:  13    -0.221295517641E+03    0.42067E-02   -0.11799E-01 13956   0.234E+00    0.459E+00
DAV:  14    -0.221342774996E+03   -0.47257E-01   -0.16552E-01 14772   0.202E+00    0.169E+00
DAV:  15    -0.221361994770E+03   -0.19220E-01   -0.65263E-02 12396   0.683E-01    0.138E+00
DAV:  16    -0.221356646675E+03    0.53481E-02   -0.96956E-03 13944   0.726E-01    0.326E-01
DAV:  17    -0.221357396040E+03   -0.74937E-03   -0.43502E-03 12204   0.166E-01    0.176E-01
DAV:  18    -0.221357659023E+03   -0.26298E-03   -0.19324E-04 13728   0.733E-02    0.976E-02
DAV:  19    -0.221357737142E+03   -0.78119E-04   -0.87028E-05 13944   0.455E-02    0.240E-02
DAV:  20    -0.221357753368E+03   -0.16226E-04   -0.32271E-05 13308   0.194E-02    0.891E-03
DAV:  21    -0.221357761849E+03   -0.84813E-05   -0.32130E-06 11772   0.561E-03    0.946E-03
DAV:  22    -0.221357762694E+03   -0.84505E-06   -0.49419E-07  9384   0.334E-03    0.640E-03
DAV:  23    -0.221357759189E+03    0.35058E-05   -0.19903E-07  8568   0.232E-03    0.242E-03
DAV:  24    -0.221357757946E+03    0.12429E-05   -0.10955E-07  6732   0.111E-03    0.905E-04
DAV:  25    -0.221357758557E+03   -0.61131E-06   -0.26574E-08  6216   0.431E-04    0.344E-04
DAV:  26    -0.221357758833E+03   -0.27584E-06   -0.26719E-09  6204   0.215E-04    0.411E-04
DAV:  27    -0.221357758576E+03    0.25666E-06   -0.29514E-09  6216   0.222E-04    0.363E-04
DAV:  28    -0.221357758404E+03    0.17230E-06   -0.64579E-10  6204   0.982E-05    0.217E-04
DAV:  29    -0.221357758350E+03    0.53580E-07   -0.70623E-10  6168   0.679E-05
   1 F= -.22135776E+03 E0= -.22135776E+03  d E =0.000000E+00  mag=    42.3006
