 vasp.5.4.4.18Apr17-6-g9f103f2a35 (build Apr 28 2018 00:24:27) complex          
  
 executed on             LinuxIFC date 2021.09.06  03:42:46
 running on   24 total cores
 distrk:  each k-point on   24 cores,    1 groups
 distr:  one band on NCORES_PER_BAND=   4 cores,    6 groups


--------------------------------------------------------------------------------------------------------


 INCAR:
 POTCAR:    PAW_PBE Fe_pv 02Aug2007               
 POTCAR:    PAW_PBE O 08Apr2002                   
 POTCAR:    PAW_PBE Fe_pv 02Aug2007               
   VRHFIN =Fe:  3pd7s1                                                          
   LEXCH  = PE                                                                  
   EATOM  =  2457.4239 eV,  180.6156 Ry                                         
                                                                                
   TITEL  = PAW_PBE Fe_pv 02Aug2007                                             
   LULTRA =        F    use ultrasoft PP ?                                      
   IUNSCR =        1    unscreen: 0-lin 1-nonlin 2-no                           
   RPACOR =    1.750    partial core radius                                     
   POMASS =   55.847; ZVAL   =   14.000    mass and valenz                      
   RCORE  =    2.200    outmost cutoff radius                                   
   RWIGS  =    2.200; RWIGS  =    1.164    wigner-seitz radius (au A)           
   ENMAX  =  293.238; ENMIN  =  219.928 eV                                      
   ICORE  =        3    local potential                                         
   LCOR   =        T    correct aug charges                                     
   LPAW   =        T    paw PP                                                  
   EAUG   =  578.342                                                            
   DEXC   =    0.000                                                            
   RMAX   =    2.249    core radius for proj-oper                               
   RAUG   =    1.300    factor for augmentation sphere                          
   RDEP   =    2.296    radius for radial grids                                 
   RDEPT  =    1.766    core radius for aug-charge                              
                                                                                
   Atomic configuration                                                         
    8 entries                                                                   
     n  l   j            E        occ.                                          
     1  0  0.50     -6993.8440   2.0000                                         
     2  0  0.50      -814.6047   2.0000                                         
     2  1  1.50      -693.3689   6.0000                                         
     3  0  0.50       -89.4732   2.0000                                         
     3  1  1.50       -55.6373   6.0000                                         
     3  2  2.50        -3.8151   7.0000                                         
     4  0  0.50        -4.2551   1.0000                                         
     4  3  2.50        -1.3606   0.0000                                         
   Description                                                                  
     l       E           TYP  RCUT    TYP  RCUT                                 
     1    -55.6372668     23  2.000                                             
     1     -5.4423304     23  2.000                                             
     2     -3.8151096     23  2.200                                             
     2     -5.1756922     23  2.200                                             
     0     -4.2550951     23  2.200                                             
     0     27.2116520     23  2.200                                             
     3     -1.3605826     23  2.200                                             
  local pseudopotential read in
  partial core-charges read in
  partial kinetic energy density read in
  atomic valenz-charges read in
  non local Contribution for L=           1  read in
    real space projection operators read in
  non local Contribution for L=           1  read in
    real space projection operators read in
  non local Contribution for L=           2  read in
    real space projection operators read in
  non local Contribution for L=           2  read in
    real space projection operators read in
  non local Contribution for L=           0  read in
    real space projection operators read in
  non local Contribution for L=           0  read in
    real space projection operators read in
    PAW grid and wavefunctions read in
 
   number of l-projection  operators is LMAX  =           6
   number of lm-projection operators is LMMAX =          18
 
 POTCAR:    PAW_PBE O 08Apr2002                   
   VRHFIN =O: s2p4                                                              
   LEXCH  = PE                                                                  
   EATOM  =   432.3788 eV,   31.7789 Ry                                         
                                                                                
   TITEL  = PAW_PBE O 08Apr2002                                                 
   LULTRA =        F    use ultrasoft PP ?                                      
   IUNSCR =        1    unscreen: 0-lin 1-nonlin 2-no                           
   RPACOR =    1.200    partial core radius                                     
   POMASS =   16.000; ZVAL   =    6.000    mass and valenz                      
   RCORE  =    1.520    outmost cutoff radius                                   
   RWIGS  =    1.550; RWIGS  =    0.820    wigner-seitz radius (au A)           
   ENMAX  =  400.000; ENMIN  =  300.000 eV                                      
   ICORE  =        2    local potential                                         
   LCOR   =        T    correct aug charges                                     
   LPAW   =        T    paw PP                                                  
   EAUG   =  605.392                                                            
   DEXC   =    0.000                                                            
   RMAX   =    1.553    core radius for proj-oper                               
   RAUG   =    1.300    factor for augmentation sphere                          
   RDEP   =    1.550    radius for radial grids                                 
   RDEPT  =    1.329    core radius for aug-charge                              
                                                                                
   Atomic configuration                                                         
    4 entries                                                                   
     n  l   j            E        occ.                                          
     1  0  0.50      -514.6923   2.0000                                         
     2  0  0.50       -23.9615   2.0000                                         
     2  1  0.50        -9.0305   4.0000                                         
     3  2  1.50        -9.5241   0.0000                                         
   Description                                                                  
     l       E           TYP  RCUT    TYP  RCUT                                 
     0    -23.9615318     23  1.200                                             
     0     -9.5240782     23  1.200                                             
     1     -9.0304911     23  1.520                                             
     1      8.1634956     23  1.520                                             
     2     -9.5240782      7  1.500                                             
  local pseudopotential read in
  partial core-charges read in
  partial kinetic energy density read in
  kinetic energy density of atom read in
  atomic valenz-charges read in
  non local Contribution for L=           0  read in
    real space projection operators read in
  non local Contribution for L=           0  read in
    real space projection operators read in
  non local Contribution for L=           1  read in
    real space projection operators read in
  non local Contribution for L=           1  read in
    real space projection operators read in
    PAW grid and wavefunctions read in
 
   number of l-projection  operators is LMAX  =           4
   number of lm-projection operators is LMMAX =           8
 
 Optimization of the real space projectors (new method)

 maximal supplied QI-value         = 17.01
 optimisation between [QCUT,QGAM] = [ 11.74, 23.64] = [ 38.56,156.50] Ry 
 Optimized for a Real-space Cutoff    1.42 Angstroem

   l    n(q)    QCUT    max X(q) W(low)/X(q) W(high)/X(q)  e(spline) 
   1     10    11.735     4.267    0.99E-04    0.19E-03    0.15E-06
   1     10    11.735     5.750    0.15E-03    0.29E-03    0.23E-06
   2      9    11.735    53.656    0.10E-03    0.79E-04    0.18E-06
   2      9    11.735    49.521    0.11E-03    0.81E-04    0.18E-06
   0     10    11.735    31.246    0.60E-04    0.16E-04    0.76E-07
   0     10    11.735    12.201    0.43E-04    0.14E-04    0.64E-07
 Optimization of the real space projectors (new method)

 maximal supplied QI-value         = 24.76
 optimisation between [QCUT,QGAM] = [ 11.88, 23.77] = [ 39.54,158.16] Ry 
 Optimized for a Real-space Cutoff    1.19 Angstroem

   l    n(q)    QCUT    max X(q) W(low)/X(q) W(high)/X(q)  e(spline) 
   0      8    11.883    20.381    0.75E-04    0.14E-03    0.32E-06
   0      8    11.883    15.268    0.83E-04    0.15E-03    0.34E-06
   1      8    11.883     5.964    0.15E-03    0.31E-04    0.33E-06
   1      8    11.883     5.382    0.14E-03    0.15E-04    0.29E-06
  PAW_PBE Fe_pv 02Aug2007               :
 energy of atom  1       EATOM=-2457.4239
 kinetic energy error for atom=    0.0060 (will be added to EATOM!!)
  PAW_PBE O 08Apr2002                   :
 energy of atom  2       EATOM= -432.3788
 kinetic energy error for atom=    0.0198 (will be added to EATOM!!)
 
 
 POSCAR: Fe12 O18                                
  positions in direct lattice
  No initial velocities read in
 exchange correlation table for  LEXCH =        8
   RHO(1)=    0.500       N(1)  =     2000
   RHO(2)=  100.500       N(2)  =     4000
 


--------------------------------------------------------------------------------------------------------


 ion  position               nearest neighbor table
   1  0.000  0.000  0.355-  17 1.94  23 1.94  28 1.94  25 2.12  19 2.12  13 2.12
   2  0.000  0.000  0.645-  16 1.94  22 1.94  29 1.94  26 2.12  20 2.12  14 2.12
   3  0.333  0.667  0.022-  30 1.94  24 1.94  18 1.94  27 2.12  21 2.12  15 2.12
   4  0.667  0.333  0.689-  14 1.94  20 1.94  26 1.94  22 2.12  29 2.12  16 2.12
   5  0.333  0.667  0.311-  13 1.94  19 1.94  25 1.94  23 2.12  28 2.12  17 2.12
   6  0.667  0.333  0.978-  27 1.94  21 1.94  15 1.94  30 2.12  24 2.12  18 2.12
   7  0.000  0.000  0.145-  24 1.94  18 1.94  30 1.94  25 2.12  19 2.12  13 2.12
   8  0.000  0.000  0.855-  21 1.94  15 1.94  27 1.94  26 2.12  20 2.12  14 2.12
   9  0.333  0.667  0.811-  20 1.94  14 1.94  26 1.94  27 2.12  21 2.12  15 2.12
  10  0.333  0.667  0.522-  29 1.94  16 1.94  22 1.94  23 2.12  28 2.12  17 2.12
  11  0.667  0.333  0.478-  28 1.94  17 1.94  23 1.94  22 2.12  29 2.12  16 2.12
  12  0.667  0.333  0.189-  19 1.94  13 1.94  25 1.94  30 2.12  24 2.12  18 2.12
  13  0.306  0.000  0.250-   5 1.94  12 1.94   7 2.12   1 2.12
  14  0.694  0.000  0.750-   4 1.94   9 1.94   8 2.12   2 2.12
  15  0.640  0.667  0.917-   6 1.94   8 1.94   9 2.12   3 2.12
  16  0.973  0.333  0.583-  10 1.94   2 1.94   4 2.12  11 2.12
  17  0.027  0.667  0.417-  11 1.94   1 1.94   5 2.12  10 2.12
  18  0.360  0.333  0.083-   3 1.94   7 1.94  12 2.12   6 2.12
  19  0.000  0.306  0.250-  12 1.94   5 1.94   7 2.12   1 2.12
  20  0.000  0.694  0.750-   9 1.94   4 1.94   8 2.12   2 2.12
  21  0.333  0.973  0.917-   6 1.94   8 1.94   9 2.12   3 2.12
  22  0.667  0.640  0.583-  10 1.94   2 1.94   4 2.12  11 2.12
  23  0.333  0.360  0.417-  11 1.94   1 1.94   5 2.12  10 2.12
  24  0.667  0.027  0.083-   3 1.94   7 1.94  12 2.12   6 2.12
  25  0.694  0.694  0.250-  12 1.94   5 1.94   7 2.12   1 2.12
  26  0.306  0.306  0.750-   9 1.94   4 1.94   8 2.12   2 2.12
  27  0.027  0.360  0.917-   6 1.94   8 1.94   9 2.12   3 2.12
  28  0.640  0.973  0.417-  11 1.94   1 1.94   5 2.12  10 2.12
  29  0.360  0.027  0.583-  10 1.94   2 1.94   4 2.12  11 2.12
  30  0.973  0.640  0.083-   3 1.94   7 1.94  12 2.12   6 2.12
 
  LATTYP: Found a hexagonal cell.
 ALAT       =     5.0350995578
 C/A-ratio  =     2.7324385232
  
  Lattice vectors:
  
 A1 = (   5.0351000000,   0.0000000000,   0.0000000000)
 A2 = (  -2.5175500000,   4.3605240000,   0.0000000000)
 A3 = (   0.0000000000,   0.0000000000,  13.7581000000)


Analysis of symmetry for initial positions (statically):
=====================================================================
 Subroutine PRICEL returns following result:
 
  LATTYP: Found a trigonal (rhomboedric) cell.
 ALAT       =     5.4297801492
 COS(alpha) =     0.5700456062
  
  Lattice vectors:
  
 A1 = (  -2.5175449649,  -1.4535109070,  -4.5860425054)
 A2 = (  -0.0000025175,   2.9070174535,  -4.5860287473)
 A3 = (   2.5175474825,  -1.4535065465,  -4.5860287473)
 
   3 primitive cells build up your supercell.
 

 Routine SETGRP: Setting up the symmetry group for a 
 hexagonal supercell.


 Subroutine GETGRP returns: Found 12 space group operations
 (whereof  6 operations were pure point group operations)
 out of a pool of 24 trial point group operations.


The static configuration has the point symmetry S_6 .
 The point group associated with its full space group is D_3d.


Analysis of symmetry for dynamics (positions and initial velocities):
=====================================================================
 Subroutine PRICEL returns following result:
 
  LATTYP: Found a trigonal (rhomboedric) cell.
 ALAT       =     5.4297801492
 COS(alpha) =     0.5700456062
  
  Lattice vectors:
  
 A1 = (  -2.5175449649,  -1.4535109070,  -4.5860425054)
 A2 = (  -0.0000025175,   2.9070174535,  -4.5860287473)
 A3 = (   2.5175474825,  -1.4535065465,  -4.5860287473)
 
   3 primitive cells build up your supercell.
 

 Routine SETGRP: Setting up the symmetry group for a 
 hexagonal supercell.


 Subroutine GETGRP returns: Found 12 space group operations
 (whereof  6 operations were pure point group operations)
 out of a pool of 24 trial point group operations.


The dynamic configuration has the point symmetry S_6 .
 The point group associated with its full space group is D_3d.


Analysis of structural, dynamic, and magnetic symmetry:
=====================================================================
 Subroutine PRICEL returns following result:
 
  LATTYP: Found a trigonal (rhomboedric) cell.
 ALAT       =     5.4297801492
 COS(alpha) =     0.5700456062
  
  Lattice vectors:
  
 A1 = (  -2.5175449649,  -1.4535109070,  -4.5860425054)
 A2 = (  -0.0000025175,   2.9070174535,  -4.5860287473)
 A3 = (   2.5175474825,  -1.4535065465,  -4.5860287473)
 
   3 primitive cells build up your supercell.
 

 Routine SETGRP: Setting up the symmetry group for a 
 hexagonal supercell.


 Subroutine GETGRP returns: Found 12 space group operations
 (whereof  6 operations were pure point group operations)
 out of a pool of 24 trial point group operations.


The magnetic configuration has the point symmetry S_6 .
 The point group associated with its full space group is D_3d.


 Subroutine INISYM returns: Found 12 space group operations
 (whereof  6 operations are pure point group operations),
 and found     3 'primitive' translations

 
 
 KPOINTS: pymatgen with grid density = 2464 / numb

Automatic generation of k-mesh.
Space group operators:
 irot       det(A)        alpha          n_x          n_y          n_z        tau_x        tau_y        tau_z
    1     1.000000     0.000000     1.000000     0.000000     0.000000     0.000000     0.000000     0.000000
    2    -1.000000     0.000000     1.000000     0.000000     0.000000     0.000000     0.000000     0.000000
    3     1.000000   120.000000     0.000000     0.000000    -1.000000     0.000000     0.000000     0.000000
    4    -1.000000   120.000000     0.000000     0.000000    -1.000000     0.000000     0.000000     0.000000
    5     1.000000   120.000000     0.000000     0.000000     1.000000     0.000000     0.000000     0.000000
    6    -1.000000   120.000000     0.000000     0.000000     1.000000     0.000000     0.000000     0.000000
    7     1.000000   180.000000     1.000000     0.000000     0.000000     0.000001    -0.000000    -0.500000
    8    -1.000000   180.000000     1.000000     0.000000     0.000000     0.000001    -0.000000    -0.500000
    9     1.000000   180.000000     0.500000    -0.866025     0.000000     0.000000     0.000000    -0.500000
   10    -1.000000   180.000000     0.500000    -0.866025     0.000000     0.000000     0.000000    -0.500000
   11     1.000000   180.000000    -0.500000    -0.866025     0.000000     0.000000     0.000000    -0.500000
   12    -1.000000   180.000000    -0.500000    -0.866025     0.000000     0.000000     0.000000    -0.500000
 
 Subroutine IBZKPT returns following result:
 ===========================================
 
 Found     14 irreducible k-points:
 
 Following reciprocal coordinates:
            Coordinates               Weight
  0.000000  0.000000  0.000000      1.000000
  0.166667  0.000000  0.000000      6.000000
  0.333333  0.000000  0.000000      6.000000
  0.500000  0.000000  0.000000      3.000000
  0.166667  0.166667  0.000000      6.000000
  0.333333  0.166667  0.000000     12.000000
  0.333333  0.333333  0.000000      2.000000
  0.000000  0.000000  0.500000      1.000000
  0.166667  0.000000  0.500000      6.000000
  0.333333  0.000000  0.500000      6.000000
  0.500000  0.000000  0.500000      3.000000
  0.166667  0.166667  0.500000      6.000000
  0.333333  0.166667  0.500000     12.000000
  0.333333  0.333333  0.500000      2.000000
 
 Following cartesian coordinates:
            Coordinates               Weight
  0.000000  0.000000  0.000000      1.000000
  0.033101  0.019111  0.000000      6.000000
  0.066202  0.038222  0.000000      6.000000
  0.099303  0.057333  0.000000      3.000000
  0.033101  0.057333  0.000000      6.000000
  0.066202  0.076443  0.000000     12.000000
  0.066202  0.114665  0.000000      2.000000
  0.000000  0.000000  0.036342      1.000000
  0.033101  0.019111  0.036342      6.000000
  0.066202  0.038222  0.036342      6.000000
  0.099303  0.057333  0.036342      3.000000
  0.033101  0.057333  0.036342      6.000000
  0.066202  0.076443  0.036342     12.000000
  0.066202  0.114665  0.036342      2.000000
 
 TETIRR: Found     71 inequivalent tetrahedra from      432


--------------------------------------------------------------------------------------------------------




 Dimension of arrays:
   k-points           NKPTS =     14   k-points in BZ     NKDIM =     14   number of bands    NBANDS=    204
   number of dos      NEDOS =    301   number of ions     NIONS =     30
   non local maximal  LDIM  =      6   non local SUM 2l+1 LMDIM =     18
   total plane-waves  NPLWV = 172800
   max r-space proj   IRMAX =   6892   max aug-charges    IRDMAX=  17140
   dimension x,y,z NGX =    40 NGY =   40 NGZ =  108
   dimension x,y,z NGXF=    80 NGYF=   80 NGZF=  216
   support grid    NGXF=    80 NGYF=   80 NGZF=  216
   ions per type =              12  18
   NGX,Y,Z   is equivalent  to a cutoff of  13.21, 13.21, 13.05 a.u.
   NGXF,Y,Z  is equivalent  to a cutoff of  26.41, 26.41, 26.10 a.u.

 SYSTEM =  unknown system                          
 POSCAR =  Fe12 O18                                

 Startparameter for this run:
   NWRITE =      2    write-flag & timer
   PREC   = accura    normal or accurate (medium, high low for compatibility)
   ISTART =      0    job   : 0-new  1-cont  2-samecut
   ICHARG =      2    charge: 1-file 2-atom 10-const
   ISPIN  =      2    spin polarized calculation?
   LNONCOLLINEAR =      F non collinear calculations
   LSORBIT =      F    spin-orbit coupling
   INIWAV =      1    electr: 0-lowe 1-rand  2-diag
   LASPH  =      F    aspherical Exc in radial PAW
   METAGGA=      F    non-selfconsistent MetaGGA calc.

 Electronic Relaxation 1
   ENCUT  =  540.0 eV  39.69 Ry    6.30 a.u.   9.54  9.54 26.07*2*pi/ulx,y,z
   ENINI  =  540.0     initial cutoff
   ENAUG  =  605.4 eV  augmentation charge cutoff
   NELM   =    100;   NELMIN=  2; NELMDL= -5     # of ELM steps 
   EDIFF  = 0.1E-06   stopping-criterion for ELM
   LREAL  =      T    real-space projection
   NLSPLINE    = F    spline interpolate recip. space projectors
   LCOMPAT=      F    compatible to vasp.4.4
   GGA_COMPAT  = T    GGA compatible to vasp.4.4-vasp.4.6
   LMAXPAW     = -100 max onsite density
   LMAXMIX     =    2 max onsite mixed and CHGCAR
   VOSKOWN=      0    Vosko Wilk Nusair interpolation
   ROPT   =   -0.00025  -0.00025
 Ionic relaxation
   EDIFFG = 0.1E-05   stopping-criterion for IOM
   NSW    =      0    number of steps for IOM
   NBLOCK =      1;   KBLOCK =      1    inner block; outer block 
   IBRION =     -1    ionic relax: 0-MD 1-quasi-New 2-CG
   NFREE  =      0    steps in history (QN), initial steepest desc. (CG)
   ISIF   =      3    stress and relaxation
   IWAVPR =     10    prediction:  0-non 1-charg 2-wave 3-comb
   ISYM   =      2    0-nonsym 1-usesym 2-fastsym
   LCORR  =      T    Harris-Foulkes like correction to forces

   POTIM  = 0.5000    time-step for ionic-motion
   TEIN   =    0.0    initial temperature
   TEBEG  =    0.0;   TEEND  =   0.0 temperature during run
   SMASS  =  -3.00    Nose mass-parameter (am)
   estimated Nose-frequenzy (Omega)   =  0.10E-29 period in steps =****** mass=  -0.579E-27a.u.
   SCALEE = 1.0000    scale energy and forces
   NPACO  =    256;   APACO  = 16.0  distance and # of slots for P.C.
   PSTRESS=    0.0 pullay stress

  Mass of Ions in am
   POMASS =  55.85 16.00
  Ionic Valenz
   ZVAL   =  14.00  6.00
  Atomic Wigner-Seitz radii
   RWIGS  =  -1.00 -1.00
  virtual crystal weights 
   VCA    =   1.00  1.00
   NELECT =     276.0000    total number of electrons
   NUPDOWN=      -1.0000    fix difference up-down

 DOS related values:
   EMIN   =  10.00;   EMAX   =-10.00  energy-range for DOS
   EFERMI =   0.00
   ISMEAR =    -5;   SIGMA  =   0.05  broadening in eV -4-tet -1-fermi 0-gaus

 Electronic relaxation 2 (details)
   IALGO  =     38    algorithm
   LDIAG  =      T    sub-space diagonalisation (order eigenvalues)
   LSUBROT=      F    optimize rotation matrix (better conditioning)
   TURBO    =      0    0=normal 1=particle mesh
   IRESTART =      0    0=no restart 2=restart with 2 vectors
   NREBOOT  =      0    no. of reboots
   NMIN     =      0    reboot dimension
   EREF     =   0.00    reference energy to select bands
   IMIX   =      4    mixing-type and parameters
     AMIX     =   0.40;   BMIX     =  1.00
     AMIX_MAG =   1.60;   BMIX_MAG =  1.00
     AMIN     =   0.10
     WC   =   100.;   INIMIX=   1;  MIXPRE=   1;  MAXMIX= -45

 Intra band minimization:
   WEIMIN = 0.0000     energy-eigenvalue tresh-hold
   EBREAK =  0.12E-09  absolut break condition
   DEPER  =   0.30     relativ break condition  

   TIME   =   0.40     timestep for ELM

  volume/ion in A,a.u.               =      10.07        67.95
  Fermi-wavevector in a.u.,A,eV,Ry     =   1.588581  3.001983 34.335534  2.523591
  Thomas-Fermi vector in A             =   2.687563
 
 Write flags
   LWAVE        =      F    write WAVECAR
   LDOWNSAMPLE  =      F    k-point downsampling of WAVECAR
   LCHARG       =      F    write CHGCAR
   LVTOT        =      F    write LOCPOT, total local potential
   LVHAR        =      F    write LOCPOT, Hartree potential only
   LELF         =      F    write electronic localiz. function (ELF)
   LORBIT       =     11    0 simple, 1 ext, 2 COOP (PROOUT), +10 PAW based schemes


 Dipole corrections
   LMONO  =      F    monopole corrections only (constant potential shift)
   LDIPOL =      F    correct potential (dipole corrections)
   IDIPOL =      0    1-x, 2-y, 3-z, 4-all directions 
   EPSILON=  1.0000000 bulk dielectric constant

 Exchange correlation treatment:
   GGA     =    --    GGA type
   LEXCH   =     8    internal setting for exchange type
   VOSKOWN=      0    Vosko Wilk Nusair interpolation
   LHFCALC =     F    Hartree Fock is set to
   LHFONE  =     F    Hartree Fock one center treatment
   AEXX    =    0.0000 exact exchange contribution

 Linear response parameters
   LEPSILON=     F    determine dielectric tensor
   LRPA    =     F    only Hartree local field effects (RPA)
   LNABLA  =     F    use nabla operator in PAW spheres
   LVEL    =     F    velocity operator in full k-point grid
   LINTERFAST=   F  fast interpolation
   KINTER  =     0    interpolate to denser k-point grid
   CSHIFT  =0.1000    complex shift for real part using Kramers Kronig
   OMEGAMAX=  -1.0    maximum frequency
   DEG_THRESHOLD= 0.2000000E-02 threshold for treating states as degnerate
   RTIME   =   -0.100 relaxation time in fs
  (WPLASMAI=    0.000 imaginary part of plasma frequency in eV, 0.658/RTIME)
   DFIELD  = 0.0000000 0.0000000 0.0000000 field for delta impulse in time
 
 Orbital magnetization related:
   ORBITALMAG=     F  switch on orbital magnetization
   LCHIMAG   =     F  perturbation theory with respect to B field
   DQ        =  0.001000  dq finite difference perturbation B field
   LLRAUG    =     F  two centre corrections for induced B field



--------------------------------------------------------------------------------------------------------


 Static calculation
 charge density and potential will be updated during run
 spin polarized calculation
 Variant of blocked Davidson
 Davidson routine will perform the subspace rotation
 perform sub-space diagonalisation
    after iterative eigenvector-optimisation
 modified Broyden-mixing scheme, WC =      100.0
 initial mixing is a Kerker type mixing with AMIX =  0.4000 and BMIX =      1.0000
 Hartree-type preconditioning will be used
 using additional bands           66
 real space projection scheme for non local part
 use partial core corrections
 calculate Harris-corrections to forces 
   (improved forces if not selfconsistent)
 use gradient corrections 
 use of overlap-Matrix (Vanderbilt PP)
 Fermi weights with tetrahedron method with Bloechl corrections


--------------------------------------------------------------------------------------------------------


  energy-cutoff  :      540.00
  volume of cell :      302.07
      direct lattice vectors                 reciprocal lattice vectors
     5.035100000  0.000000000  0.000000000     0.198605787  0.114665118  0.000000000
    -2.517550000  4.360524000  0.000000000     0.000000000  0.229330236  0.000000000
     0.000000000  0.000000000 13.758100000     0.000000000  0.000000000  0.072684455

  length of vectors
     5.035100000  5.035099558 13.758100000     0.229330216  0.229330236  0.072684455


 
 k-points in units of 2pi/SCALE and weight: pymatgen with grid density = 2464 / numb
   0.00000000  0.00000000  0.00000000       0.014
   0.03310096  0.01911085  0.00000000       0.083
   0.06620193  0.03822171  0.00000000       0.083
   0.09930289  0.05733256  0.00000000       0.042
   0.03310096  0.05733256  0.00000000       0.083
   0.06620193  0.07644341  0.00000000       0.167
   0.06620193  0.11466512  0.00000000       0.028
   0.00000000  0.00000000  0.03634223       0.014
   0.03310096  0.01911085  0.03634223       0.083
   0.06620193  0.03822171  0.03634223       0.083
   0.09930289  0.05733256  0.03634223       0.042
   0.03310096  0.05733256  0.03634223       0.083
   0.06620193  0.07644341  0.03634223       0.167
   0.06620193  0.11466512  0.03634223       0.028
 
 k-points in reciprocal lattice and weights: pymatgen with grid density = 2464 / numb
   0.00000000  0.00000000  0.00000000       0.014
   0.16666667  0.00000000  0.00000000       0.083
   0.33333333  0.00000000  0.00000000       0.083
   0.50000000  0.00000000  0.00000000       0.042
   0.16666667  0.16666667  0.00000000       0.083
   0.33333333  0.16666667  0.00000000       0.167
   0.33333333  0.33333333  0.00000000       0.028
   0.00000000  0.00000000  0.50000000       0.014
   0.16666667  0.00000000  0.50000000       0.083
   0.33333333  0.00000000  0.50000000       0.083
   0.50000000  0.00000000  0.50000000       0.042
   0.16666667  0.16666667  0.50000000       0.083
   0.33333333  0.16666667  0.50000000       0.167
   0.33333333  0.33333333  0.50000000       0.028
 
 position of ions in fractional coordinates (direct lattice) 
   0.00000000  0.00000000  0.35532000
   0.00000000  0.00000000  0.64468000
   0.33333300  0.66666700  0.02198700
   0.66666700  0.33333300  0.68865300
   0.33333300  0.66666700  0.31134700
   0.66666700  0.33333300  0.97801300
   0.00000000  0.00000000  0.14468000
   0.00000000  0.00000000  0.85532000
   0.33333300  0.66666700  0.81134700
   0.33333300  0.66666700  0.52198700
   0.66666700  0.33333300  0.47801300
   0.66666700  0.33333300  0.18865300
   0.30618000  0.00000000  0.25000000
   0.69382000  0.00000000  0.75000000
   0.63951300  0.66666700  0.91666700
   0.97284700  0.33333300  0.58333300
   0.02715300  0.66666700  0.41666700
   0.36048700  0.33333300  0.08333300
   0.00000000  0.30618000  0.25000000
   0.00000000  0.69382000  0.75000000
   0.33333300  0.97284700  0.91666700
   0.66666700  0.63951300  0.58333300
   0.33333300  0.36048700  0.41666700
   0.66666700  0.02715300  0.08333300
   0.69382000  0.69382000  0.25000000
   0.30618000  0.30618000  0.75000000
   0.02715300  0.36048700  0.91666700
   0.63951300  0.97284700  0.41666700
   0.36048700  0.02715300  0.58333300
   0.97284700  0.63951300  0.08333300
 
 position of ions in cartesian coordinates  (Angst):
   0.00000000  0.00000000  4.88852809
   0.00000000  0.00000000  8.86957191
  -0.00000252  2.90701745  0.30249934
   2.51755252  1.45350655  9.47455684
  -0.00000252  2.90701745  4.28354316
   2.51755252  1.45350655 13.45560066
   0.00000000  0.00000000  1.99052191
   0.00000000  0.00000000 11.76757809
  -0.00000252  2.90701745 11.16259316
  -0.00000252  2.90701745  7.18154934
   2.51755252  1.45350655  6.57655066
   2.51755252  1.45350655  2.59550684
   1.54164692  0.00000000  3.43952500
   3.49345308  0.00000000 10.31857500
   1.54164440  2.90701745 12.61159625
   4.05919944  1.45350655  8.02555375
  -1.54164944  2.90701745  5.73254625
   0.97590560  1.45350655  1.14650375
  -0.77082346  1.33510524  3.43952500
  -1.74672654  3.02541876 10.31857500
  -0.77082598  4.24212269 12.61159625
   1.74672906  2.78861178  8.02555375
   0.77082094  1.57191222  5.73254625
   3.28837598  0.11840131  1.14650375
   1.74672654  3.02541876  3.43952500
   0.77082346  1.33510524 10.31857500
  -0.77082598  1.57191222 12.61159625
   0.77082094  4.24212269  5.73254625
   1.74672906  0.11840131  8.02555375
   3.28837598  2.78861178  1.14650375
 


--------------------------------------------------------------------------------------------------------


 k-point  1 :   0.0000 0.0000 0.0000  plane waves:    8657
 k-point  2 :   0.1667 0.0000 0.0000  plane waves:    8633
 k-point  3 :   0.3333 0.0000 0.0000  plane waves:    8612
 k-point  4 :   0.5000 0.0000 0.0000  plane waves:    8562
 k-point  5 :   0.1667 0.1667 0.0000  plane waves:    8611
 k-point  6 :   0.3333 0.1667 0.0000  plane waves:    8592
 k-point  7 :   0.3333 0.3333 0.0000  plane waves:    8586
 k-point  8 :   0.0000 0.0000 0.5000  plane waves:    8704
 k-point  9 :   0.1667 0.0000 0.5000  plane waves:    8636
 k-point 10 :   0.3333 0.0000 0.5000  plane waves:    8608
 k-point 11 :   0.5000 0.0000 0.5000  plane waves:    8564
 k-point 12 :   0.1667 0.1667 0.5000  plane waves:    8606
 k-point 13 :   0.3333 0.1667 0.5000  plane waves:    8594
 k-point 14 :   0.3333 0.3333 0.5000  plane waves:    8592

 maximum and minimum number of plane-waves per node :      2198     2127

 maximum number of plane-waves:      8704
 maximum index in each direction: 
   IXMAX=    9   IYMAX=    9   IZMAX=   26
   IXMIN=  -10   IYMIN=   -9   IZMIN=  -26


 real space projection operators:
  total allocation   :      15630.00 KBytes
  max/ min on nodes  :       3910.88       3900.00


 parallel 3D FFT for wavefunctions:
    minimum data exchange during FFTs selected (reduces bandwidth)
 parallel 3D FFT for charge:
    minimum data exchange during FFTs selected (reduces bandwidth)


 total amount of memory used by VASP MPI-rank0    86125. kBytes
=======================================================================

   base      :      30000. kBytes
   nonlr-proj:       8320. kBytes
   fftplans  :       3515. kBytes
   grid      :       9039. kBytes
   one-center:        248. kBytes
   wavefun   :      35003. kBytes
 
     INWAV:  cpu time    0.0000: real time    0.0001
 Broyden mixing: mesh for mixing (old mesh)
   NGX = 19   NGY = 19   NGZ = 53
  (NGX  = 80   NGY  = 80   NGZ  =216)
  gives a total of  19133 points

 initial charge density was supplied:
 charge density of overlapping atoms calculated
 number of electron     276.0000000 magnetization      70.8000000
 keeping initial charge density in first step


--------------------------------------------------------------------------------------------------------


 Maximum index for non-local projection operator         1670
 Maximum index for augmentation-charges         1267 (set IRDMAX)


--------------------------------------------------------------------------------------------------------


 First call to EWALD:  gamma=   0.264
 Maximum number of real-space cells 4x 4x 2
 Maximum number of reciprocal cells 2x 2x 5

    FEWALD:  cpu time    0.0019: real time    0.0019


--------------------------------------- Iteration      1(   1)  ---------------------------------------


    POTLOK:  cpu time    0.0807: real time    0.0828
    SETDIJ:  cpu time    0.0129: real time    0.0130
     EDDAV:  cpu time   11.1038: real time   11.1507
 BZINTS: Fermi energy: 28.207966;276.000000 electrons
         Band energy:1238.404120;  BLOECHL correction: -0.133071
       DOS:  cpu time    0.0451: real time    0.0452
    --------------------------------------------
      LOOP:  cpu time   11.2425: real time   11.2916

 eigenvalue-minimisations  : 11628
 total energy-change (2. order) : 0.4254704E+04  (-0.1406840E+05)
 number of electron     276.0000000 magnetization      70.8000000
 augmentation part      276.0000000 magnetization      70.8000000

 Free energy of the ion-electron system (eV)
  ---------------------------------------------------
  alpha Z        PSCENC =      1362.55286497
  Ewald energy   TEWEN  =    -25513.06237826
  -Hartree energ DENC   =    -10371.14386018
  -exchange      EXHF   =         0.00000000
  -V(xc)+E(xc)   XCENC  =      1375.27779283
  PAW double counting   =     30224.59406688   -31333.39571732
  entropy T*S    EENTRO =         0.00000000
  eigenvalues    EBANDS =      1238.40411963
  atomic energy  EATOM  =     37271.47719547
  Solvation  Ediel_sol  =         0.00000000
  ---------------------------------------------------
  free energy    TOTEN  =      4254.70408401 eV

  energy without entropy =     4254.70408401  energy(sigma->0) =     4254.70408401


--------------------------------------------------------------------------------------------------------




--------------------------------------- Iteration      1(   2)  ---------------------------------------


     EDDAV:  cpu time   10.9350: real time   10.9710
 BZINTS: Fermi energy: 11.388876;276.000000 electrons
         Band energy:***********;  BLOECHL correction: -0.041715
       DOS:  cpu time    0.0494: real time    0.0495
    --------------------------------------------
      LOOP:  cpu time   10.9844: real time   11.0204

 eigenvalue-minimisations  : 11424
 total energy-change (2. order) :-0.3822502E+04  (-0.3471858E+04)
 number of electron     276.0000000 magnetization      70.8000000
 augmentation part      276.0000000 magnetization      70.8000000

 Free energy of the ion-electron system (eV)
  ---------------------------------------------------
  alpha Z        PSCENC =      1362.55286497
  Ewald energy   TEWEN  =    -25513.06237826
  -Hartree energ DENC   =    -10371.14386018
  -exchange      EXHF   =         0.00000000
  -V(xc)+E(xc)   XCENC  =      1375.27779283
  PAW double counting   =     30224.59406688   -31333.39571732
  entropy T*S    EENTRO =         0.00000000
  eigenvalues    EBANDS =     -2584.09753551
  atomic energy  EATOM  =     37271.47719547
  Solvation  Ediel_sol  =         0.00000000
  ---------------------------------------------------
  free energy    TOTEN  =       432.20242887 eV

  energy without entropy =      432.20242887  energy(sigma->0) =      432.20242887


--------------------------------------------------------------------------------------------------------




--------------------------------------- Iteration      1(   3)  ---------------------------------------


     EDDAV:  cpu time   11.2802: real time   11.3105
 BZINTS: Fermi energy:  8.629751;276.000000 electrons
         Band energy:***********;  BLOECHL correction:  0.000000
       DOS:  cpu time    0.0073: real time    0.0073
    --------------------------------------------
      LOOP:  cpu time   11.2875: real time   11.3178

 eigenvalue-minimisations  : 11928
 total energy-change (2. order) :-0.6844076E+03  (-0.6128105E+03)
 number of electron     276.0000000 magnetization      70.8000000
 augmentation part      276.0000000 magnetization      70.8000000

 Free energy of the ion-electron system (eV)
  ---------------------------------------------------
  alpha Z        PSCENC =      1362.55286497
  Ewald energy   TEWEN  =    -25513.06237826
  -Hartree energ DENC   =    -10371.14386018
  -exchange      EXHF   =         0.00000000
  -V(xc)+E(xc)   XCENC  =      1375.27779283
  PAW double counting   =     30224.59406688   -31333.39571732
  entropy T*S    EENTRO =         0.00000000
  eigenvalues    EBANDS =     -3268.50513153
  atomic energy  EATOM  =     37271.47719547
  Solvation  Ediel_sol  =         0.00000000
  ---------------------------------------------------
  free energy    TOTEN  =      -252.20516714 eV

  energy without entropy =     -252.20516714  energy(sigma->0) =     -252.20516714


--------------------------------------------------------------------------------------------------------




--------------------------------------- Iteration      1(   4)  ---------------------------------------


     EDDAV:  cpu time   12.0846: real time   12.1164
 BZINTS: Fermi energy:  8.231983;276.000000 electrons
         Band energy:***********;  BLOECHL correction:  0.000000
       DOS:  cpu time    0.0064: real time    0.0064
    --------------------------------------------
      LOOP:  cpu time   12.0911: real time   12.1228

 eigenvalue-minimisations  : 12972
 total energy-change (2. order) :-0.4174384E+02  (-0.4127471E+02)
 number of electron     276.0000000 magnetization      70.8000000
 augmentation part      276.0000000 magnetization      70.8000000

 Free energy of the ion-electron system (eV)
  ---------------------------------------------------
  alpha Z        PSCENC =      1362.55286497
  Ewald energy   TEWEN  =    -25513.06237826
  -Hartree energ DENC   =    -10371.14386018
  -exchange      EXHF   =         0.00000000
  -V(xc)+E(xc)   XCENC  =      1375.27779283
  PAW double counting   =     30224.59406688   -31333.39571732
  entropy T*S    EENTRO =         0.00000000
  eigenvalues    EBANDS =     -3310.24896798
  atomic energy  EATOM  =     37271.47719547
  Solvation  Ediel_sol  =         0.00000000
  ---------------------------------------------------
  free energy    TOTEN  =      -293.94900360 eV

  energy without entropy =     -293.94900360  energy(sigma->0) =     -293.94900360


--------------------------------------------------------------------------------------------------------




--------------------------------------- Iteration      1(   5)  ---------------------------------------


     EDDAV:  cpu time   12.0161: real time   12.0478
 BZINTS: Fermi energy:  8.231745;276.000000 electrons
         Band energy:***********;  BLOECHL correction:  0.000000
       DOS:  cpu time    0.0065: real time    0.0065
    CHARGE:  cpu time    0.4317: real time    0.4328
    MIXING:  cpu time    0.0020: real time    0.0021
    --------------------------------------------
      LOOP:  cpu time   12.4563: real time   12.4892

 eigenvalue-minimisations  : 12792
 total energy-change (2. order) :-0.4533989E+00  (-0.4523486E+00)
 number of electron     276.0000073 magnetization      67.8179408
 augmentation part      108.0345423 magnetization      47.0422392

 Broyden mixing:
  rms(total) = 0.80935E+01    rms(broyden)= 0.80931E+01
  rms(prec ) = 0.88399E+01
  weight for this iteration     100.00

 Free energy of the ion-electron system (eV)
  ---------------------------------------------------
  alpha Z        PSCENC =      1362.55286497
  Ewald energy   TEWEN  =    -25513.06237826
  -Hartree energ DENC   =    -10371.14386018
  -exchange      EXHF   =         0.00000000
  -V(xc)+E(xc)   XCENC  =      1375.27779283
  PAW double counting   =     30224.59406688   -31333.39571732
  entropy T*S    EENTRO =         0.00000000
  eigenvalues    EBANDS =     -3310.70236688
  atomic energy  EATOM  =     37271.47719547
  Solvation  Ediel_sol  =         0.00000000
  ---------------------------------------------------
  free energy    TOTEN  =      -294.40240249 eV

  energy without entropy =     -294.40240249  energy(sigma->0) =     -294.40240249


--------------------------------------------------------------------------------------------------------




--------------------------------------- Iteration      1(   6)  ---------------------------------------


    POTLOK:  cpu time    0.0813: real time    0.0818
    SETDIJ:  cpu time    0.0135: real time    0.0135
     EDDAV:  cpu time   13.4241: real time   13.4589
 BZINTS: Fermi energy:  5.536854;276.000000 electrons
         Band energy:***********;  BLOECHL correction: -0.054373
       DOS:  cpu time    0.0506: real time    0.0507
    CHARGE:  cpu time    0.4394: real time    0.4405
    MIXING:  cpu time    0.0019: real time    0.0019
    --------------------------------------------
      LOOP:  cpu time   14.0108: real time   14.0474

 eigenvalue-minimisations  : 14772
 total energy-change (2. order) : 0.5910533E+02  (-0.2536188E+02)
 number of electron     276.0000044 magnetization      62.9850520
 augmentation part      120.7661457 magnetization      54.4338903

 Broyden mixing:
  rms(total) = 0.91447E+01    rms(broyden)= 0.91438E+01
  rms(prec ) = 0.97964E+01
  weight for this iteration     100.00

 eigenvalues of (default mixing * dielectric matrix)
  average eigenvalue GAMMA=   0.3178
  0.3178

 Free energy of the ion-electron system (eV)
  ---------------------------------------------------
  alpha Z        PSCENC =      1362.55286497
  Ewald energy   TEWEN  =    -25513.06237826
  -Hartree energ DENC   =     -9966.13955414
  -exchange      EXHF   =         0.00000000
  -V(xc)+E(xc)   XCENC  =      1376.67542900
  PAW double counting   =     31434.57832041   -32501.57314923
  entropy T*S    EENTRO =         0.00000000
  eigenvalues    EBANDS =     -3699.80579784
  atomic energy  EATOM  =     37271.47719547
  Solvation  Ediel_sol  =         0.00000000
  ---------------------------------------------------
  free energy    TOTEN  =      -235.29706963 eV

  energy without entropy =     -235.29706963  energy(sigma->0) =     -235.29706963


--------------------------------------------------------------------------------------------------------




--------------------------------------- Iteration      1(   7)  ---------------------------------------


    POTLOK:  cpu time    0.0763: real time    0.0766
    SETDIJ:  cpu time    0.0132: real time    0.0132
     EDDAV:  cpu time   11.5113: real time   11.5413
 BZINTS: Fermi energy:  7.090032;276.000000 electrons
         Band energy:***********;  BLOECHL correction: -0.035811
       DOS:  cpu time    0.0515: real time    0.0516
    CHARGE:  cpu time    0.4345: real time    0.4355
    MIXING:  cpu time    0.0017: real time    0.0017
    --------------------------------------------
      LOOP:  cpu time   12.0885: real time   12.1200

 eigenvalue-minimisations  : 12204
 total energy-change (2. order) : 0.2414938E+02  (-0.1148164E+02)
 number of electron     276.0000061 magnetization      58.8089269
 augmentation part      109.3741955 magnetization      40.2757345

 Broyden mixing:
  rms(total) = 0.43770E+01    rms(broyden)= 0.43766E+01
  rms(prec ) = 0.45377E+01
  weight for this iteration     100.00

 eigenvalues of (default mixing * dielectric matrix)
  average eigenvalue GAMMA=   0.6792
  1.0293  0.3292

 Free energy of the ion-electron system (eV)
  ---------------------------------------------------
  alpha Z        PSCENC =      1362.55286497
  Ewald energy   TEWEN  =    -25513.06237826
  -Hartree energ DENC   =    -10208.59499400
  -exchange      EXHF   =         0.00000000
  -V(xc)+E(xc)   XCENC  =      1372.54090573
  PAW double counting   =     32867.23915552   -33995.85646262
  entropy T*S    EENTRO =         0.00000000
  eigenvalues    EBANDS =     -3367.44397946
  atomic energy  EATOM  =     37271.47719547
  Solvation  Ediel_sol  =         0.00000000
  ---------------------------------------------------
  free energy    TOTEN  =      -211.14769265 eV

  energy without entropy =     -211.14769265  energy(sigma->0) =     -211.14769265


--------------------------------------------------------------------------------------------------------




--------------------------------------- Iteration      1(   8)  ---------------------------------------


    POTLOK:  cpu time    0.0779: real time    0.0783
    SETDIJ:  cpu time    0.0132: real time    0.0132
     EDDAV:  cpu time   11.4694: real time   11.5016
 BZINTS: Fermi energy:  6.458273;276.000000 electrons
         Band energy:***********;  BLOECHL correction: -0.034194
       DOS:  cpu time    0.0507: real time    0.0509
    CHARGE:  cpu time    0.4349: real time    0.4361
    MIXING:  cpu time    0.0017: real time    0.0017
    --------------------------------------------
      LOOP:  cpu time   12.0480: real time   12.0819

 eigenvalue-minimisations  : 12132
 total energy-change (2. order) :-0.7105444E+01  (-0.2140916E+01)
 number of electron     276.0000060 magnetization      51.8985501
 augmentation part      111.2672768 magnetization      34.9855103

 Broyden mixing:
  rms(total) = 0.26404E+01    rms(broyden)= 0.26404E+01
  rms(prec ) = 0.27006E+01
  weight for this iteration     100.00

 eigenvalues of (default mixing * dielectric matrix)
  average eigenvalue GAMMA=   1.0852
  2.2856  0.5899  0.3800

 Free energy of the ion-electron system (eV)
  ---------------------------------------------------
  alpha Z        PSCENC =      1362.55286497
  Ewald energy   TEWEN  =    -25513.06237826
  -Hartree energ DENC   =    -10074.77335192
  -exchange      EXHF   =         0.00000000
  -V(xc)+E(xc)   XCENC  =      1366.56553895
  PAW double counting   =     34232.02036863   -35372.57307728
  entropy T*S    EENTRO =         0.00000000
  eigenvalues    EBANDS =     -3490.46029742
  atomic energy  EATOM  =     37271.47719547
  Solvation  Ediel_sol  =         0.00000000
  ---------------------------------------------------
  free energy    TOTEN  =      -218.25313686 eV

  energy without entropy =     -218.25313686  energy(sigma->0) =     -218.25313686


--------------------------------------------------------------------------------------------------------




--------------------------------------- Iteration      1(   9)  ---------------------------------------


    POTLOK:  cpu time    0.0766: real time    0.0771
    SETDIJ:  cpu time    0.0128: real time    0.0129
     EDDAV:  cpu time   11.7957: real time   11.8267
 BZINTS: Fermi energy:  5.872138;276.000000 electrons
         Band energy:***********;  BLOECHL correction: -0.039837
       DOS:  cpu time    0.0518: real time    0.0521
    CHARGE:  cpu time    0.4326: real time    0.4337
    MIXING:  cpu time    0.0018: real time    0.0018
    --------------------------------------------
      LOOP:  cpu time   12.3713: real time   12.4042

 eigenvalue-minimisations  : 12672
 total energy-change (2. order) :-0.4267023E+01  (-0.8380887E+00)
 number of electron     276.0000055 magnetization      50.9407977
 augmentation part      114.2157401 magnetization      37.9039105

 Broyden mixing:
  rms(total) = 0.27671E+01    rms(broyden)= 0.27669E+01
  rms(prec ) = 0.29039E+01
  weight for this iteration     100.00

 eigenvalues of (default mixing * dielectric matrix)
  average eigenvalue GAMMA=   1.1000
  2.8476  0.8042  0.3741  0.3741

 Free energy of the ion-electron system (eV)
  ---------------------------------------------------
  alpha Z        PSCENC =      1362.55286497
  Ewald energy   TEWEN  =    -25513.06237826
  -Hartree energ DENC   =     -9931.78173263
  -exchange      EXHF   =         0.00000000
  -V(xc)+E(xc)   XCENC  =      1362.32895369
  PAW double counting   =     36536.50368597   -37705.92415504
  entropy T*S    EENTRO =         0.00000000
  eigenvalues    EBANDS =     -3604.61459402
  atomic energy  EATOM  =     37271.47719547
  Solvation  Ediel_sol  =         0.00000000
  ---------------------------------------------------
  free energy    TOTEN  =      -222.52015985 eV

  energy without entropy =     -222.52015985  energy(sigma->0) =     -222.52015985


--------------------------------------------------------------------------------------------------------




--------------------------------------- Iteration      1(  10)  ---------------------------------------


    POTLOK:  cpu time    0.0761: real time    0.0763
    SETDIJ:  cpu time    0.0130: real time    0.0131
     EDDAV:  cpu time   11.7438: real time   11.7763
 BZINTS: Fermi energy:  5.958059;276.000000 electrons
         Band energy:***********;  BLOECHL correction: -0.037562
       DOS:  cpu time    0.0517: real time    0.0518
    CHARGE:  cpu time    0.4359: real time    0.4380
    MIXING:  cpu time    0.0020: real time    0.0020
    --------------------------------------------
      LOOP:  cpu time   12.3224: real time   12.3576

 eigenvalue-minimisations  : 12528
 total energy-change (2. order) : 0.4365008E+00  (-0.2501246E+00)
 number of electron     276.0000055 magnetization      50.6252202
 augmentation part      113.4491567 magnetization      37.3374551

 Broyden mixing:
  rms(total) = 0.18685E+01    rms(broyden)= 0.18684E+01
  rms(prec ) = 0.19812E+01
  weight for this iteration     100.00

 eigenvalues of (default mixing * dielectric matrix)
  average eigenvalue GAMMA=   1.0194
  2.6121  0.3729  0.7702  0.6708  0.6708

 Free energy of the ion-electron system (eV)
  ---------------------------------------------------
  alpha Z        PSCENC =      1362.55286497
  Ewald energy   TEWEN  =    -25513.06237826
  -Hartree energ DENC   =     -9948.88636117
  -exchange      EXHF   =         0.00000000
  -V(xc)+E(xc)   XCENC  =      1360.89824959
  PAW double counting   =     36547.58621188   -37720.06145826
  entropy T*S    EENTRO =         0.00000000
  eigenvalues    EBANDS =     -3582.58798332
  atomic energy  EATOM  =     37271.47719547
  Solvation  Ediel_sol  =         0.00000000
  ---------------------------------------------------
  free energy    TOTEN  =      -222.08365909 eV

  energy without entropy =     -222.08365909  energy(sigma->0) =     -222.08365909


--------------------------------------------------------------------------------------------------------




--------------------------------------- Iteration      1(  11)  ---------------------------------------


    POTLOK:  cpu time    0.0768: real time    0.0776
    SETDIJ:  cpu time    0.0130: real time    0.0130
     EDDAV:  cpu time   12.9148: real time   12.9536
 BZINTS: Fermi energy:  6.020640;276.000000 electrons
         Band energy:***********;  BLOECHL correction: -0.034125
       DOS:  cpu time    0.0504: real time    0.0506
    CHARGE:  cpu time    0.4372: real time    0.4384
    MIXING:  cpu time    0.0020: real time    0.0020
    --------------------------------------------
      LOOP:  cpu time   13.4942: real time   13.5351

 eigenvalue-minimisations  : 14160
 total energy-change (2. order) : 0.5826060E+00  (-0.2452852E-01)
 number of electron     276.0000056 magnetization      49.2972112
 augmentation part      113.0215251 magnetization      35.6169372

 Broyden mixing:
  rms(total) = 0.12194E+01    rms(broyden)= 0.12194E+01
  rms(prec ) = 0.12938E+01
  weight for this iteration     100.00

 eigenvalues of (default mixing * dielectric matrix)
  average eigenvalue GAMMA=   1.0468
  2.5802  0.9783  0.9783  0.3777  0.7981  0.5682

 Free energy of the ion-electron system (eV)
  ---------------------------------------------------
  alpha Z        PSCENC =      1362.55286497
  Ewald energy   TEWEN  =    -25513.06237826
  -Hartree energ DENC   =     -9960.13111061
  -exchange      EXHF   =         0.00000000
  -V(xc)+E(xc)   XCENC  =      1360.21435376
  PAW double counting   =     36375.97974952   -37546.43511981
  entropy T*S    EENTRO =         0.00000000
  eigenvalues    EBANDS =     -3572.09660816
  atomic energy  EATOM  =     37271.47719547
  Solvation  Ediel_sol  =         0.00000000
  ---------------------------------------------------
  free energy    TOTEN  =      -221.50105312 eV

  energy without entropy =     -221.50105312  energy(sigma->0) =     -221.50105312


--------------------------------------------------------------------------------------------------------




--------------------------------------- Iteration      1(  12)  ---------------------------------------


    POTLOK:  cpu time    0.0772: real time    0.0775
    SETDIJ:  cpu time    0.0130: real time    0.0130
     EDDAV:  cpu time   13.8367: real time   13.8767
 BZINTS: Fermi energy:  6.081578;276.000000 electrons
         Band energy:***********;  BLOECHL correction: -0.033719
       DOS:  cpu time    0.0517: real time    0.0518
    CHARGE:  cpu time    0.4368: real time    0.4378
    MIXING:  cpu time    0.0021: real time    0.0021
    --------------------------------------------
      LOOP:  cpu time   14.4174: real time   14.4589

 eigenvalue-minimisations  : 15192
 total energy-change (2. order) : 0.2013288E+00  (-0.1959744E-01)
 number of electron     276.0000057 magnetization      46.7998377
 augmentation part      112.7003290 magnetization      33.0235997

 Broyden mixing:
  rms(total) = 0.85167E+00    rms(broyden)= 0.85166E+00
  rms(prec ) = 0.89347E+00
  weight for this iteration     100.00

 eigenvalues of (default mixing * dielectric matrix)
  average eigenvalue GAMMA=   1.1009
  1.9767  1.9767  1.3536  0.3764  0.7489  0.6371  0.6371

 Free energy of the ion-electron system (eV)
  ---------------------------------------------------
  alpha Z        PSCENC =      1362.55286497
  Ewald energy   TEWEN  =    -25513.06237826
  -Hartree energ DENC   =     -9973.47115305
  -exchange      EXHF   =         0.00000000
  -V(xc)+E(xc)   XCENC  =      1359.58593603
  PAW double counting   =     36261.36841635   -37430.80614308
  entropy T*S    EENTRO =         0.00000000
  eigenvalues    EBANDS =     -3558.94446278
  atomic energy  EATOM  =     37271.47719547
  Solvation  Ediel_sol  =         0.00000000
  ---------------------------------------------------
  free energy    TOTEN  =      -221.29972435 eV

  energy without entropy =     -221.29972435  energy(sigma->0) =     -221.29972435


--------------------------------------------------------------------------------------------------------




--------------------------------------- Iteration      1(  13)  ---------------------------------------


    POTLOK:  cpu time    0.0765: real time    0.0769
    SETDIJ:  cpu time    0.0128: real time    0.0128
     EDDAV:  cpu time   12.7792: real time   12.8163
 BZINTS: Fermi energy:  6.143596;276.000000 electrons
         Band energy:***********;  BLOECHL correction: -0.034499
       DOS:  cpu time    0.0457: real time    0.0458
    CHARGE:  cpu time    0.4434: real time    0.4447
    MIXING:  cpu time    0.0022: real time    0.0022
    --------------------------------------------
      LOOP:  cpu time   13.3598: real time   13.3988

 eigenvalue-minimisations  : 13956
 total energy-change (2. order) : 0.4206708E-02  (-0.1179879E-01)
 number of electron     276.0000057 magnetization      43.8653303
 augmentation part      112.4161539 magnetization      30.3358248

 Broyden mixing:
  rms(total) = 0.45937E+00    rms(broyden)= 0.45935E+00
  rms(prec ) = 0.48237E+00
  weight for this iteration     100.00

 eigenvalues of (default mixing * dielectric matrix)
  average eigenvalue GAMMA=   1.4035
  3.6073  3.3304  0.9339  0.9339  0.3767  0.7218  0.7218  0.6020

 Free energy of the ion-electron system (eV)
  ---------------------------------------------------
  alpha Z        PSCENC =      1362.55286497
  Ewald energy   TEWEN  =    -25513.06237826
  -Hartree energ DENC   =     -9992.03970235
  -exchange      EXHF   =         0.00000000
  -V(xc)+E(xc)   XCENC  =      1358.74199927
  PAW double counting   =     36026.60139868   -37192.94421226
  entropy T*S    EENTRO =         0.00000000
  eigenvalues    EBANDS =     -3542.62268317
  atomic energy  EATOM  =     37271.47719547
  Solvation  Ediel_sol  =         0.00000000
  ---------------------------------------------------
  free energy    TOTEN  =      -221.29551764 eV

  energy without entropy =     -221.29551764  energy(sigma->0) =     -221.29551764


--------------------------------------------------------------------------------------------------------




--------------------------------------- Iteration      1(  14)  ---------------------------------------


    POTLOK:  cpu time    0.0771: real time    0.0774
    SETDIJ:  cpu time    0.0130: real time    0.0130
     EDDAV:  cpu time   13.3773: real time   13.4194
 BZINTS: Fermi energy:  6.176231;276.000000 electrons
         Band energy:***********;  BLOECHL correction: -0.032727
       DOS:  cpu time    0.0489: real time    0.0490
    CHARGE:  cpu time    0.4347: real time    0.4361
    MIXING:  cpu time    0.0022: real time    0.0022
    --------------------------------------------
      LOOP:  cpu time   13.9533: real time   13.9972

 eigenvalue-minimisations  : 14772
 total energy-change (2. order) :-0.4725736E-01  (-0.1655164E-01)
 number of electron     276.0000058 magnetization      42.9879754
 augmentation part      112.2284817 magnetization      29.8413760

 Broyden mixing:
  rms(total) = 0.16866E+00    rms(broyden)= 0.16859E+00
  rms(prec ) = 0.17542E+00
  weight for this iteration     100.00

 eigenvalues of (default mixing * dielectric matrix)
  average eigenvalue GAMMA=   1.5127
  5.3820  2.7707  1.2587  0.3766  0.8452  0.8452  0.8763  0.6297  0.6297

 Free energy of the ion-electron system (eV)
  ---------------------------------------------------
  alpha Z        PSCENC =      1362.55286497
  Ewald energy   TEWEN  =    -25513.06237826
  -Hartree energ DENC   =    -10004.71550215
  -exchange      EXHF   =         0.00000000
  -V(xc)+E(xc)   XCENC  =      1357.63579634
  PAW double counting   =     35824.66725360   -36987.98375447
  entropy T*S    EENTRO =         0.00000000
  eigenvalues    EBANDS =     -3531.91425049
  atomic energy  EATOM  =     37271.47719547
  Solvation  Ediel_sol  =         0.00000000
  ---------------------------------------------------
  free energy    TOTEN  =      -221.34277500 eV

  energy without entropy =     -221.34277500  energy(sigma->0) =     -221.34277500


--------------------------------------------------------------------------------------------------------




--------------------------------------- Iteration      1(  15)  ---------------------------------------


    POTLOK:  cpu time    0.0767: real time    0.0770
    SETDIJ:  cpu time    0.0130: real time    0.0130
     EDDAV:  cpu time   11.5946: real time   11.6294
 BZINTS: Fermi energy:  6.159870;276.000000 electrons
         Band energy:***********;  BLOECHL correction: -0.033096
       DOS:  cpu time    0.0506: real time    0.0507
    CHARGE:  cpu time    0.4359: real time    0.4371
    MIXING:  cpu time    0.0023: real time    0.0023
    --------------------------------------------
      LOOP:  cpu time   12.1730: real time   12.2095

 eigenvalue-minimisations  : 12396
 total energy-change (2. order) :-0.1921977E-01  (-0.6526253E-02)
 number of electron     276.0000058 magnetization      42.5729017
 augmentation part      112.2908317 magnetization      29.6011191

 Broyden mixing:
  rms(total) = 0.13804E+00    rms(broyden)= 0.13801E+00
  rms(prec ) = 0.14658E+00
  weight for this iteration     100.00

 eigenvalues of (default mixing * dielectric matrix)
  average eigenvalue GAMMA=   1.5442
  6.0978  2.8437  1.3725  1.0754  0.3767  0.8475  0.8475  0.6929  0.6929  0.5955

 Free energy of the ion-electron system (eV)
  ---------------------------------------------------
  alpha Z        PSCENC =      1362.55286497
  Ewald energy   TEWEN  =    -25513.06237826
  -Hartree energ DENC   =    -10002.90342712
  -exchange      EXHF   =         0.00000000
  -V(xc)+E(xc)   XCENC  =      1357.14829428
  PAW double counting   =     35815.99130179   -36978.99706670
  entropy T*S    EENTRO =         0.00000000
  eigenvalues    EBANDS =     -3533.56877920
  atomic energy  EATOM  =     37271.47719547
  Solvation  Ediel_sol  =         0.00000000
  ---------------------------------------------------
  free energy    TOTEN  =      -221.36199477 eV

  energy without entropy =     -221.36199477  energy(sigma->0) =     -221.36199477


--------------------------------------------------------------------------------------------------------




--------------------------------------- Iteration      1(  16)  ---------------------------------------


    POTLOK:  cpu time    0.0769: real time    0.0778
    SETDIJ:  cpu time    0.0130: real time    0.0130
     EDDAV:  cpu time   12.8112: real time   12.8497
 BZINTS: Fermi energy:  6.182611;276.000000 electrons
         Band energy:***********;  BLOECHL correction: -0.032912
       DOS:  cpu time    0.0503: real time    0.0504
    CHARGE:  cpu time    0.4393: real time    0.4405
    MIXING:  cpu time    0.0026: real time    0.0026
    --------------------------------------------
      LOOP:  cpu time   13.3933: real time   13.4340

 eigenvalue-minimisations  : 13944
 total energy-change (2. order) : 0.5348094E-02  (-0.9695647E-03)
 number of electron     276.0000058 magnetization      42.4542283
 augmentation part      112.1951763 magnetization      29.4727227

 Broyden mixing:
  rms(total) = 0.32555E-01    rms(broyden)= 0.32536E-01
  rms(prec ) = 0.33850E-01
  weight for this iteration     100.00

 eigenvalues of (default mixing * dielectric matrix)
  average eigenvalue GAMMA=   1.5319
  6.2704  2.7902  1.3103  1.3103  1.0858  0.3767  0.8192  0.8192  0.7308  0.7308
  0.6068

 Free energy of the ion-electron system (eV)
  ---------------------------------------------------
  alpha Z        PSCENC =      1362.55286497
  Ewald energy   TEWEN  =    -25513.06237826
  -Hartree energ DENC   =    -10007.68459364
  -exchange      EXHF   =         0.00000000
  -V(xc)+E(xc)   XCENC  =      1357.05926373
  PAW double counting   =     35776.12988644   -36939.10159500
  entropy T*S    EENTRO =         0.00000000
  eigenvalues    EBANDS =     -3528.72729038
  atomic energy  EATOM  =     37271.47719547
  Solvation  Ediel_sol  =         0.00000000
  ---------------------------------------------------
  free energy    TOTEN  =      -221.35664668 eV

  energy without entropy =     -221.35664668  energy(sigma->0) =     -221.35664668


--------------------------------------------------------------------------------------------------------




--------------------------------------- Iteration      1(  17)  ---------------------------------------


    POTLOK:  cpu time    0.0768: real time    0.0771
    SETDIJ:  cpu time    0.0131: real time    0.0131
     EDDAV:  cpu time   11.5266: real time   11.5597
 BZINTS: Fermi energy:  6.183187;276.000000 electrons
         Band energy:***********;  BLOECHL correction: -0.032863
       DOS:  cpu time    0.0519: real time    0.0520
    CHARGE:  cpu time    0.4388: real time    0.4400
    MIXING:  cpu time    0.0026: real time    0.0026
    --------------------------------------------
      LOOP:  cpu time   12.1097: real time   12.1444

 eigenvalue-minimisations  : 12204
 total energy-change (2. order) :-0.7493651E-03  (-0.4350240E-03)
 number of electron     276.0000058 magnetization      42.3666335
 augmentation part      112.1941285 magnetization      29.3986367

 Broyden mixing:
  rms(total) = 0.17640E-01    rms(broyden)= 0.17634E-01
  rms(prec ) = 0.18196E-01
  weight for this iteration     100.00

 eigenvalues of (default mixing * dielectric matrix)
  average eigenvalue GAMMA=   1.5547
  6.4411  2.7567  2.4569  0.3767  1.0770  1.0770  0.8914  0.8914  0.7155  0.7155
  0.6023  0.6550

 Free energy of the ion-electron system (eV)
  ---------------------------------------------------
  alpha Z        PSCENC =      1362.55286497
  Ewald energy   TEWEN  =    -25513.06237826
  -Hartree energ DENC   =    -10007.31193292
  -exchange      EXHF   =         0.00000000
  -V(xc)+E(xc)   XCENC  =      1357.00469072
  PAW double counting   =     35796.27640778   -36959.80431130
  entropy T*S    EENTRO =         0.00000000
  eigenvalues    EBANDS =     -3528.48993250
  atomic energy  EATOM  =     37271.47719547
  Solvation  Ediel_sol  =         0.00000000
  ---------------------------------------------------
  free energy    TOTEN  =      -221.35739604 eV

  energy without entropy =     -221.35739604  energy(sigma->0) =     -221.35739604


--------------------------------------------------------------------------------------------------------




--------------------------------------- Iteration      1(  18)  ---------------------------------------


    POTLOK:  cpu time    0.0769: real time    0.0775
    SETDIJ:  cpu time    0.0130: real time    0.0130
     EDDAV:  cpu time   12.6013: real time   12.6343
 BZINTS: Fermi energy:  6.183342;276.000000 electrons
         Band energy:***********;  BLOECHL correction: -0.033004
       DOS:  cpu time    0.0490: real time    0.0491
    CHARGE:  cpu time    0.4389: real time    0.4401
    MIXING:  cpu time    0.0027: real time    0.0027
    --------------------------------------------
      LOOP:  cpu time   13.1818: real time   13.2166

 eigenvalue-minimisations  : 13728
 total energy-change (2. order) :-0.2629823E-03  (-0.1932446E-04)
 number of electron     276.0000058 magnetization      42.3145017
 augmentation part      112.1903642 magnetization      29.3631758

 Broyden mixing:
  rms(total) = 0.97551E-02    rms(broyden)= 0.97512E-02
  rms(prec ) = 0.10157E-01
  weight for this iteration     100.00

 eigenvalues of (default mixing * dielectric matrix)
  average eigenvalue GAMMA=   1.5239
  6.5690  2.8298  2.4534  1.1492  1.1492  0.9550  0.9550  0.3767  0.7325  0.7325
  0.6956  0.6066  0.6066

 Free energy of the ion-electron system (eV)
  ---------------------------------------------------
  alpha Z        PSCENC =      1362.55286497
  Ewald energy   TEWEN  =    -25513.06237826
  -Hartree energ DENC   =    -10007.51903744
  -exchange      EXHF   =         0.00000000
  -V(xc)+E(xc)   XCENC  =      1356.96060248
  PAW double counting   =     35795.42548709   -36959.01241108
  entropy T*S    EENTRO =         0.00000000
  eigenvalues    EBANDS =     -3528.17998225
  atomic energy  EATOM  =     37271.47719547
  Solvation  Ediel_sol  =         0.00000000
  ---------------------------------------------------
  free energy    TOTEN  =      -221.35765902 eV

  energy without entropy =     -221.35765902  energy(sigma->0) =     -221.35765902


--------------------------------------------------------------------------------------------------------




--------------------------------------- Iteration      1(  19)  ---------------------------------------


    POTLOK:  cpu time    0.0759: real time    0.0762
    SETDIJ:  cpu time    0.0128: real time    0.0128
     EDDAV:  cpu time   12.8070: real time   12.8452
 BZINTS: Fermi energy:  6.184353;276.000000 electrons
         Band energy:***********;  BLOECHL correction: -0.033085
       DOS:  cpu time    0.0528: real time    0.0529
    CHARGE:  cpu time    0.4389: real time    0.4399
    MIXING:  cpu time    0.0029: real time    0.0029
    --------------------------------------------
      LOOP:  cpu time   13.3903: real time   13.4299

 eigenvalue-minimisations  : 13944
 total energy-change (2. order) :-0.7811901E-04  (-0.8702803E-05)
 number of electron     276.0000058 magnetization      42.3001755
 augmentation part      112.1855884 magnetization      29.3571501

 Broyden mixing:
  rms(total) = 0.23983E-02    rms(broyden)= 0.23923E-02
  rms(prec ) = 0.25497E-02
  weight for this iteration     100.00

 eigenvalues of (default mixing * dielectric matrix)
  average eigenvalue GAMMA=   1.5123
  6.6547  2.8557  2.4158  1.4112  1.1650  1.0080  1.0080  0.3767  0.7827  0.7827
  0.7451  0.7451  0.6106  0.6106

 Free energy of the ion-electron system (eV)
  ---------------------------------------------------
  alpha Z        PSCENC =      1362.55286497
  Ewald energy   TEWEN  =    -25513.06237826
  -Hartree energ DENC   =    -10007.86877496
  -exchange      EXHF   =         0.00000000
  -V(xc)+E(xc)   XCENC  =      1356.93970414
  PAW double counting   =     35790.96359718   -36954.49846036
  entropy T*S    EENTRO =         0.00000000
  eigenvalues    EBANDS =     -3527.86148532
  atomic energy  EATOM  =     37271.47719547
  Solvation  Ediel_sol  =         0.00000000
  ---------------------------------------------------
  free energy    TOTEN  =      -221.35773714 eV

  energy without entropy =     -221.35773714  energy(sigma->0) =     -221.35773714


--------------------------------------------------------------------------------------------------------




--------------------------------------- Iteration      1(  20)  ---------------------------------------


    POTLOK:  cpu time    0.0764: real time    0.0768
    SETDIJ:  cpu time    0.0130: real time    0.0130
     EDDAV:  cpu time   12.3321: real time   12.3703
 BZINTS: Fermi energy:  6.184805;276.000000 electrons
         Band energy:***********;  BLOECHL correction: -0.033101
       DOS:  cpu time    0.0481: real time    0.0483
    CHARGE:  cpu time    0.4368: real time    0.4379
    MIXING:  cpu time    0.0030: real time    0.0030
    --------------------------------------------
      LOOP:  cpu time   12.9095: real time   12.9492

 eigenvalue-minimisations  : 13308
 total energy-change (2. order) :-0.1622638E-04  (-0.3227069E-05)
 number of electron     276.0000058 magnetization      42.2955501
 augmentation part      112.1840019 magnetization      29.3543908

 Broyden mixing:
  rms(total) = 0.89124E-03    rms(broyden)= 0.88897E-03
  rms(prec ) = 0.91909E-03
  weight for this iteration     100.00

 eigenvalues of (default mixing * dielectric matrix)
  average eigenvalue GAMMA=   1.4875
  6.6841  2.9330  2.4060  1.6806  0.3767  1.0153  1.0153  1.0140  1.0140  0.7341
  0.7341  0.7789  0.6026  0.6617  0.6617

 Free energy of the ion-electron system (eV)
  ---------------------------------------------------
  alpha Z        PSCENC =      1362.55286497
  Ewald energy   TEWEN  =    -25513.06237826
  -Hartree energ DENC   =    -10007.97900266
  -exchange      EXHF   =         0.00000000
  -V(xc)+E(xc)   XCENC  =      1356.93315985
  PAW double counting   =     35790.35677250   -36953.89099995
  entropy T*S    EENTRO =         0.00000000
  eigenvalues    EBANDS =     -3527.74536529
  atomic energy  EATOM  =     37271.47719547
  Solvation  Ediel_sol  =         0.00000000
  ---------------------------------------------------
  free energy    TOTEN  =      -221.35775337 eV

  energy without entropy =     -221.35775337  energy(sigma->0) =     -221.35775337


--------------------------------------------------------------------------------------------------------




--------------------------------------- Iteration      1(  21)  ---------------------------------------


    POTLOK:  cpu time    0.0746: real time    0.0752
    SETDIJ:  cpu time    0.0127: real time    0.0128
     EDDAV:  cpu time   11.1875: real time   11.2191
 BZINTS: Fermi energy:  6.184961;276.000000 electrons
         Band energy:***********;  BLOECHL correction: -0.033109
       DOS:  cpu time    0.0503: real time    0.0505
    CHARGE:  cpu time    0.4384: real time    0.4396
    MIXING:  cpu time    0.0044: real time    0.0044
    --------------------------------------------
      LOOP:  cpu time   11.7681: real time   11.8015

 eigenvalue-minimisations  : 11772
 total energy-change (2. order) :-0.8481322E-05  (-0.3212956E-06)
 number of electron     276.0000058 magnetization      42.2965885
 augmentation part      112.1836370 magnetization      29.3561641

 Broyden mixing:
  rms(total) = 0.94619E-03    rms(broyden)= 0.94591E-03
  rms(prec ) = 0.99256E-03
  weight for this iteration     100.00

 eigenvalues of (default mixing * dielectric matrix)
  average eigenvalue GAMMA=   1.4895
  6.6969  2.9820  2.2664  2.2664  1.1356  1.1356  1.0157  1.0157  0.3767  0.7965
  0.7965  0.7264  0.7264  0.6808  0.6071  0.6071

 Free energy of the ion-electron system (eV)
  ---------------------------------------------------
  alpha Z        PSCENC =      1362.55286497
  Ewald energy   TEWEN  =    -25513.06237826
  -Hartree energ DENC   =    -10008.02557770
  -exchange      EXHF   =         0.00000000
  -V(xc)+E(xc)   XCENC  =      1356.93212103
  PAW double counting   =     35789.87737721   -36953.41185366
  entropy T*S    EENTRO =         0.00000000
  eigenvalues    EBANDS =     -3527.69751091
  atomic energy  EATOM  =     37271.47719547
  Solvation  Ediel_sol  =         0.00000000
  ---------------------------------------------------
  free energy    TOTEN  =      -221.35776185 eV

  energy without entropy =     -221.35776185  energy(sigma->0) =     -221.35776185


--------------------------------------------------------------------------------------------------------




--------------------------------------- Iteration      1(  22)  ---------------------------------------


    POTLOK:  cpu time    0.0783: real time    0.0788
    SETDIJ:  cpu time    0.0129: real time    0.0129
     EDDAV:  cpu time    9.5417: real time    9.5695
 BZINTS: Fermi energy:  6.184887;276.000000 electrons
         Band energy:***********;  BLOECHL correction: -0.033110
       DOS:  cpu time    0.0520: real time    0.0521
    CHARGE:  cpu time    0.4396: real time    0.4407
    MIXING:  cpu time    0.0035: real time    0.0035
    --------------------------------------------
      LOOP:  cpu time   10.1280: real time   10.1575

 eigenvalue-minimisations  :  9384
 total energy-change (2. order) :-0.8450515E-06  (-0.4941856E-07)
 number of electron     276.0000058 magnetization      42.2992812
 augmentation part      112.1840179 magnetization      29.3589197

 Broyden mixing:
  rms(total) = 0.64043E-03    rms(broyden)= 0.64041E-03
  rms(prec ) = 0.66426E-03
  weight for this iteration     100.00

 eigenvalues of (default mixing * dielectric matrix)
  average eigenvalue GAMMA=   1.4719
  6.6840  2.9804  2.3727  2.3727  1.2337  1.2337  1.0170  1.0170  0.3767  0.8539
  0.8539  0.7237  0.7237  0.7037  0.6034  0.6355  0.6355

 Free energy of the ion-electron system (eV)
  ---------------------------------------------------
  alpha Z        PSCENC =      1362.55286497
  Ewald energy   TEWEN  =    -25513.06237826
  -Hartree energ DENC   =    -10008.00869061
  -exchange      EXHF   =         0.00000000
  -V(xc)+E(xc)   XCENC  =      1356.93224264
  PAW double counting   =     35789.99727311   -36953.53319746
  entropy T*S    EENTRO =         0.00000000
  eigenvalues    EBANDS =     -3527.71307256
  atomic energy  EATOM  =     37271.47719547
  Solvation  Ediel_sol  =         0.00000000
  ---------------------------------------------------
  free energy    TOTEN  =      -221.35776269 eV

  energy without entropy =     -221.35776269  energy(sigma->0) =     -221.35776269


--------------------------------------------------------------------------------------------------------




--------------------------------------- Iteration      1(  23)  ---------------------------------------


    POTLOK:  cpu time    0.0771: real time    0.0776
    SETDIJ:  cpu time    0.0129: real time    0.0129
     EDDAV:  cpu time    8.9596: real time    8.9834
 BZINTS: Fermi energy:  6.184853;276.000000 electrons
         Band energy:***********;  BLOECHL correction: -0.033107
       DOS:  cpu time    0.0504: real time    0.0505
    CHARGE:  cpu time    0.4376: real time    0.4388
    MIXING:  cpu time    0.0034: real time    0.0034
    --------------------------------------------
      LOOP:  cpu time    9.5409: real time    9.5666

 eigenvalue-minimisations  :  8568
 total energy-change (2. order) : 0.3505804E-05  (-0.1990269E-07)
 number of electron     276.0000058 magnetization      42.3004163
 augmentation part      112.1842061 magnetization      29.3596228

 Broyden mixing:
  rms(total) = 0.24216E-03    rms(broyden)= 0.24210E-03
  rms(prec ) = 0.25646E-03
  weight for this iteration     100.00

 eigenvalues of (default mixing * dielectric matrix)
  average eigenvalue GAMMA=   1.4775
  6.6733  3.0153  2.6048  2.2438  1.4445  1.4445  1.0443  1.0443  0.3767  0.9214
  0.9214  0.8410  0.7304  0.7304  0.6712  0.6712  0.6085  0.6085

 Free energy of the ion-electron system (eV)
  ---------------------------------------------------
  alpha Z        PSCENC =      1362.55286497
  Ewald energy   TEWEN  =    -25513.06237826
  -Hartree energ DENC   =    -10007.99249620
  -exchange      EXHF   =         0.00000000
  -V(xc)+E(xc)   XCENC  =      1356.93348408
  PAW double counting   =     35790.27291545   -36953.81393938
  entropy T*S    EENTRO =         0.00000000
  eigenvalues    EBANDS =     -3527.72540532
  atomic energy  EATOM  =     37271.47719547
  Solvation  Ediel_sol  =         0.00000000
  ---------------------------------------------------
  free energy    TOTEN  =      -221.35775919 eV

  energy without entropy =     -221.35775919  energy(sigma->0) =     -221.35775919


--------------------------------------------------------------------------------------------------------




--------------------------------------- Iteration      1(  24)  ---------------------------------------


    POTLOK:  cpu time    0.0762: real time    0.0765
    SETDIJ:  cpu time    0.0127: real time    0.0128
     EDDAV:  cpu time    7.6725: real time    7.6931
 BZINTS: Fermi energy:  6.184840;276.000000 electrons
         Band energy:***********;  BLOECHL correction: -0.033105
       DOS:  cpu time    0.0491: real time    0.0492
    CHARGE:  cpu time    0.4343: real time    0.4356
    MIXING:  cpu time    0.0036: real time    0.0036
    --------------------------------------------
      LOOP:  cpu time    8.2484: real time    8.2707

 eigenvalue-minimisations  :  6732
 total energy-change (2. order) : 0.1242857E-05  (-0.1095491E-07)
 number of electron     276.0000058 magnetization      42.3004470
 augmentation part      112.1842971 magnetization      29.3595115

 Broyden mixing:
  rms(total) = 0.90492E-04    rms(broyden)= 0.90415E-04
  rms(prec ) = 0.95255E-04
  weight for this iteration     100.00

 eigenvalues of (default mixing * dielectric matrix)
[...]
  0.000  -0.002  -0.000  -0.000  -0.001   0.000   0.000   0.000  -0.006   0.000   0.000   0.000  -0.000   0.009  -0.000  -0.000
 total augmentation occupancy for first ion, spin component:           2
 -0.003  -0.000  -0.000  -0.010  -0.000   0.000   0.002   0.001  -0.000   0.000   0.000  -0.003  -0.002   0.000  -0.000  -0.000
  0.000  -0.003   0.000  -0.000  -0.010  -0.000  -0.000   0.000  -0.001   0.000   0.000  -0.000   0.000   0.002   0.000  -0.000
  0.000  -0.000  -0.003  -0.000   0.000  -0.010   0.000  -0.000   0.000   0.001  -0.002  -0.000   0.000  -0.000  -0.002   0.003
 -0.010   0.000  -0.000   0.021  -0.000   0.000  -0.085  -0.050  -0.000   0.002   0.013   0.049   0.032   0.000  -0.001  -0.008
 -0.000  -0.010   0.000   0.000   0.017   0.000  -0.000   0.000   0.076  -0.000  -0.000   0.000  -0.000  -0.043  -0.000   0.000
  0.000  -0.000  -0.010   0.000   0.000   0.021   0.013  -0.002  -0.000  -0.050   0.085  -0.008   0.001   0.000   0.032  -0.049
  0.002   0.000   0.000  -0.085  -0.000   0.013   4.290   0.574   0.000  -0.179  -0.000  -2.425  -0.468  -0.000   0.165   0.002
  0.001  -0.000  -0.000  -0.050   0.000  -0.002   0.574   5.014   0.000  -0.000  -0.179  -0.467  -3.020  -0.000   0.003   0.166
 -0.000  -0.001   0.000  -0.000   0.076  -0.000  -0.000   0.000   4.386   0.000  -0.000   0.000  -0.000  -2.382  -0.000   0.000
  0.000  -0.000   0.001   0.002   0.000  -0.050  -0.179   0.000   0.000   5.014  -0.574   0.166  -0.003  -0.000  -3.020   0.467
  0.000   0.000  -0.002   0.013  -0.000   0.085  -0.000  -0.179  -0.000  -0.574   4.290  -0.002   0.165   0.000   0.468  -2.425
 -0.003   0.000  -0.000   0.049   0.000  -0.008  -2.425  -0.467   0.000   0.166  -0.002   1.292   0.330   0.000  -0.128   0.000
 -0.002   0.000   0.000   0.032   0.000   0.001  -0.468  -3.020  -0.000  -0.003   0.165   0.330   1.747   0.000  -0.000  -0.128
  0.000   0.002  -0.000   0.000  -0.043   0.000  -0.000  -0.000  -2.382  -0.000   0.000   0.000   0.000   1.231   0.000  -0.000
 -0.000  -0.000  -0.002  -0.001  -0.000   0.032   0.165   0.003  -0.000  -3.020   0.468  -0.128   0.000   0.000   1.747  -0.330
 -0.000  -0.000   0.003  -0.008   0.000  -0.049   0.002   0.166   0.000   0.467  -2.425  -0.000  -0.128  -0.000  -0.330   1.292
 -0.000   0.000   0.000   0.000   0.001  -0.000  -0.000   0.000   0.044   0.000  -0.000  -0.000  -0.000  -0.022  -0.000   0.000
  0.000   0.000  -0.000   0.000   0.001   0.000  -0.000   0.000   0.007   0.000  -0.000  -0.000   0.000  -0.005   0.000   0.000


------------------------ aborting loop because EDIFF is reached ----------------------------------------


 


 total charge     
 
# of ion       s       p       d       tot
------------------------------------------
    1        0.284   6.340   5.852  12.476
    2        0.284   6.340   5.855  12.479
    3        0.284   6.340   5.862  12.486
    4        0.284   6.340   5.852  12.475
    5        0.284   6.340   5.855  12.478
    6        0.284   6.340   5.865  12.489
    7        0.284   6.340   5.851  12.474
    8        0.284   6.340   5.853  12.477
    9        0.283   6.340   5.854  12.477
   10        0.283   6.340   5.869  12.492
   11        0.283   6.340   5.866  12.489
   12        0.283   6.340   5.857  12.480
   13        1.570   3.414   0.000   4.984
   14        1.570   3.414   0.000   4.984
   15        1.570   3.414   0.000   4.984
   16        1.570   3.415   0.000   4.985
   17        1.570   3.415   0.000   4.985
   18        1.570   3.414   0.000   4.984
   19        1.569   3.402   0.000   4.971
   20        1.569   3.401   0.000   4.971
   21        1.569   3.402   0.000   4.972
   22        1.569   3.402   0.000   4.972
   23        1.569   3.403   0.000   4.972
   24        1.569   3.403   0.000   4.972
   25        1.571   3.415   0.000   4.986
   26        1.571   3.415   0.000   4.986
   27        1.571   3.416   0.000   4.987
   28        1.571   3.417   0.000   4.989
   29        1.571   3.417   0.000   4.988
   30        1.571   3.417   0.000   4.988
--------------------------------------------------
tot         31.668 137.475  70.291 239.434
 


 magnetization (x)
 
# of ion       s       p       d       tot
------------------------------------------
    1        0.024   0.036   3.138   3.199
    2        0.024   0.036   3.135   3.196
    3        0.025   0.036   3.132   3.193
    4        0.025   0.036   3.138   3.199
    5        0.025   0.036   3.138   3.199
    6        0.025   0.036   3.130   3.190
    7        0.024   0.036   3.122   3.183
    8        0.024   0.036   3.120   3.180
    9        0.025   0.036   3.120   3.181
   10        0.025   0.036   3.114   3.175
   11        0.025   0.036   3.116   3.177
   12        0.025   0.036   3.120   3.181
   13        0.020   0.139   0.000   0.159
   14        0.020   0.138   0.000   0.159
   15        0.020   0.139   0.000   0.159
   16        0.020   0.140   0.000   0.160
   17        0.020   0.140   0.000   0.160
   18        0.020   0.139   0.000   0.159
   19        0.021   0.143   0.000   0.164
   20        0.021   0.143   0.000   0.164
   21        0.021   0.144   0.000   0.165
   22        0.021   0.143   0.000   0.165
   23        0.021   0.144   0.000   0.165
   24        0.021   0.144   0.000   0.165
   25        0.020   0.135   0.000   0.156
   26        0.020   0.134   0.000   0.155
   27        0.020   0.136   0.000   0.156
   28        0.020   0.137   0.000   0.158
   29        0.020   0.137   0.000   0.157
   30        0.020   0.136   0.000   0.157
--------------------------------------------------
tot          0.668   2.942  37.525  41.135
 
    CHARGE:  cpu time    0.4429: real time    0.4454
    FORLOC:  cpu time    0.0092: real time    0.0093
    FORNL :  cpu time    3.1716: real time    3.1801
    STRESS:  cpu time    9.3666: real time    9.3940
    FORCOR:  cpu time    0.0823: real time    0.0825
    FORHAR:  cpu time    0.0149: real time    0.0150
    MIXING:  cpu time    0.0042: real time    0.0043
    OFIELD:  cpu time    0.0001: real time    0.0001

  FORCE on cell =-STRESS in cart. coord.  units (eV):
  Direction    XX          YY          ZZ          XY          YZ          ZX
  --------------------------------------------------------------------------------------
  Alpha Z  1362.55286  1362.55286  1362.55286
  Ewald   -8201.75422 -8201.75360 -9109.63806     0.00000     0.00002    -0.00000
  Hartree  3504.00794  3504.00780  2999.96608    -0.00000     0.00001    -0.00000
  E(xc)   -1615.75532 -1615.75538 -1617.31896    -0.00004     0.00000    -0.00000
  Local    -163.94004  -163.94097  1232.01265    -0.00108    -0.00004     0.00000
  n-local  -743.80330  -742.69255  -745.27673    -4.18600     0.49533     0.12431
  augment  1845.06183  1845.06254  1846.93000     0.00089    -0.00000     0.00000
  Kinetic  4005.96005  4008.06546  4023.80789     7.64174    -1.97546    -5.06116
  Fock        0.00000     0.00000     0.00000     0.00000     0.00000     0.00000
  -------------------------------------------------------------------------------------
  Total      -6.06201    -6.06201    -6.96427     0.00000     0.00000     0.00000
  in kB     -32.15303   -32.15302   -36.93866     0.00000     0.00000     0.00000
  external pressure =      -33.75 kB  Pullay stress =        0.00 kB


 VOLUME and BASIS-vectors are now :
 -----------------------------------------------------------------------------
  energy-cutoff  :      540.00
  volume of cell :      302.07
      direct lattice vectors                 reciprocal lattice vectors
     5.035100000  0.000000000  0.000000000     0.198605787  0.114665118  0.000000000
    -2.517550000  4.360524000  0.000000000     0.000000000  0.229330236  0.000000000
     0.000000000  0.000000000 13.758100000     0.000000000  0.000000000  0.072684455

  length of vectors
     5.035100000  5.035099558 13.758100000     0.229330216  0.229330236  0.072684455


 FORCES acting on ions
    electron-ion (+dipol)            ewald-force                    non-local-force                 convergence-correction
 -----------------------------------------------------------------------------------------------
   0.156E-03 0.366E-03 -.126E+03   -.101E-02 0.523E-03 0.128E+03   -.390E-17 0.564E-17 -.289E+01   0.176E-09 -.790E-09 -.716E-06
   -.402E-03 0.579E-03 0.126E+03   0.101E-02 -.523E-03 -.128E+03   -.434E-17 -.694E-17 0.289E+01   -.209E-09 0.709E-09 0.716E-06
   -.134E-03 0.533E-03 -.126E+03   0.314E-02 -.187E-02 0.128E+03   -.694E-17 0.260E-17 -.289E+01   0.132E-07 -.837E-08 0.156E-05
   -.328E-03 0.646E-03 -.126E+03   -.220E-02 0.121E-02 0.128E+03   0.173E-17 0.564E-17 -.289E+01   -.139E-07 0.728E-08 0.234E-05
   0.816E-04 0.299E-03 0.126E+03   0.220E-02 -.121E-02 -.128E+03   -.434E-18 0.260E-17 0.289E+01   0.139E-07 -.736E-08 -.234E-05
   -.112E-03 0.412E-03 0.126E+03   -.314E-02 0.187E-02 -.128E+03   0.867E-18 0.347E-17 0.289E+01   -.132E-07 0.828E-08 -.156E-05
   0.566E-03 -.105E-02 0.126E+03   0.964E-03 -.523E-03 -.128E+03   -.651E-18 -.390E-17 0.289E+01   -.883E-09 -.855E-10 0.716E-06
   0.104E-02 -.127E-02 -.126E+03   -.964E-03 0.523E-03 0.128E+03   -.629E-17 0.520E-17 -.289E+01   0.611E-09 0.347E-09 -.716E-06
   0.105E-02 -.133E-02 0.126E+03   0.215E-02 -.121E-02 -.128E+03   0.239E-17 -.347E-17 0.289E+01   0.131E-07 -.823E-08 -.234E-05
   0.751E-03 -.110E-02 -.126E+03   0.319E-02 -.187E-02 0.128E+03   -.564E-17 0.130E-17 -.289E+01   0.137E-07 -.715E-08 0.156E-05
   0.855E-03 -.121E-02 0.126E+03   -.319E-02 0.187E-02 -.128E+03   0.997E-17 -.304E-17 0.289E+01   -.140E-07 0.741E-08 -.156E-05
   0.556E-03 -.988E-03 -.126E+03   -.215E-02 0.121E-02 0.128E+03   -.369E-17 0.130E-17 -.289E+01   -.134E-07 0.849E-08 0.234E-05
   -.424E+02 -.134E-02 0.214E-03   0.418E+02 0.106E-02 -.470E-03   0.677E+00 -.195E-17 -.499E-17   0.343E-05 0.337E-08 0.149E-11
   0.424E+02 -.862E-04 -.336E-03   -.418E+02 -.106E-02 0.470E-03   -.677E+00 0.179E-17 -.867E-18   -.343E-05 -.330E-08 0.666E-10
   -.424E+02 -.317E-02 -.585E-02   0.418E+02 0.570E-03 -.997E-03   0.677E+00 0.201E-17 0.585E-17   0.343E-05 -.124E-08 -.684E-06
   -.424E+02 0.238E-02 0.545E-02   0.418E+02 -.163E-02 0.147E-02   0.677E+00 -.542E-18 -.358E-17   0.343E-05 -.291E-08 0.684E-06
   0.424E+02 -.380E-02 -.557E-02   -.418E+02 0.163E-02 -.147E-02   -.677E+00 0.146E-17 0.293E-17   -.343E-05 0.297E-08 -.683E-06
   0.424E+02 0.175E-02 0.573E-02   -.418E+02 -.570E-03 0.997E-03   -.677E+00 0.369E-17 -.152E-17   -.343E-05 0.131E-08 0.684E-06
   0.212E+02 -.367E+02 -.307E-03   -.209E+02 0.362E+02 0.438E-03   -.339E+00 0.586E+00 -.434E-17   -.171E-05 0.297E-05 0.615E-10
   -.212E+02 0.367E+02 0.193E-03   0.209E+02 -.362E+02 -.438E-03   0.339E+00 -.586E+00 0.867E-18   0.171E-05 -.297E-05 -.770E-11
   0.212E+02 -.367E+02 -.554E-02   -.209E+02 0.362E+02 -.150E-02   -.339E+00 0.586E+00 0.347E-17   -.172E-05 0.297E-05 -.683E-06
   0.212E+02 -.367E+02 0.576E-02   -.209E+02 0.362E+02 0.964E-03   -.339E+00 0.586E+00 -.113E-16   -.172E-05 0.297E-05 0.684E-06
   -.212E+02 0.367E+02 -.587E-02   0.209E+02 -.362E+02 -.964E-03   0.339E+00 -.586E+00 0.260E-17   0.172E-05 -.297E-05 -.684E-06
   -.212E+02 0.367E+02 0.543E-02   0.209E+02 -.362E+02 0.150E-02   0.339E+00 -.586E+00 0.173E-17   0.172E-05 -.297E-05 0.684E-06
   0.212E+02 0.367E+02 0.945E-04   -.209E+02 -.362E+02 0.322E-04   -.339E+00 -.586E+00 0.260E-17   -.172E-05 -.297E-05 -.689E-10
   -.212E+02 -.367E+02 0.144E-03   0.209E+02 0.362E+02 -.322E-04   0.339E+00 0.586E+00 -.130E-17   0.172E-05 0.297E-05 -.644E-10
   0.212E+02 0.367E+02 -.409E-02   -.209E+02 -.362E+02 -.303E-02   -.339E+00 -.586E+00 0.390E-17   -.171E-05 -.297E-05 -.684E-06
   -.212E+02 -.367E+02 -.404E-02   0.209E+02 0.362E+02 -.310E-02   0.339E+00 0.586E+00 -.607E-17   0.172E-05 0.297E-05 -.684E-06
   0.212E+02 0.367E+02 0.428E-02   -.209E+02 -.362E+02 0.310E-02   -.339E+00 -.586E+00 0.434E-18   -.172E-05 -.297E-05 0.683E-06
   -.212E+02 -.367E+02 0.433E-02   0.209E+02 0.362E+02 0.303E-02   0.339E+00 0.586E+00 0.434E-18   0.171E-05 0.297E-05 0.683E-06
 -----------------------------------------------------------------------------------------------
   0.149E-01 -.165E-01 -.113E-04   -.995E-13 -.995E-13 -.192E-12   0.444E-15 0.333E-15 -.897E-15   -.126E-08 0.965E-09 0.402E-09
 
 
 POSITION                                       TOTAL-FORCE (eV/Angst)
 -----------------------------------------------------------------------------------
      0.00000      0.00000      4.88853         0.000000     -0.000000     -0.927118
      0.00000      0.00000      8.86957         0.000000     -0.000000      0.927118
     -0.00000      2.90702      0.30250         0.000000     -0.000000     -0.927118
      2.51755      1.45351      9.47456         0.000000     -0.000000     -0.927118
     -0.00000      2.90702      4.28354         0.000000     -0.000000      0.927118
      2.51755      1.45351     13.45560         0.000000     -0.000000      0.927118
      0.00000      0.00000      1.99052         0.000000     -0.000000      0.927118
      0.00000      0.00000     11.76758         0.000000     -0.000000     -0.927118
     -0.00000      2.90702     11.16259         0.000000     -0.000000      0.927118
     -0.00000      2.90702      7.18155         0.000000     -0.000000     -0.927118
      2.51755      1.45351      6.57655         0.000000     -0.000000      0.927118
      2.51755      1.45351      2.59551         0.000000     -0.000000     -0.927118
      1.54165      0.00000      3.43953         0.085532     -0.000000      0.000000
      3.49345      0.00000     10.31858        -0.085532     -0.000000      0.000000
      1.54164      2.90702     12.61160         0.085532     -0.000000      0.000000
      4.05920      1.45351      8.02555         0.085532     -0.000000      0.000000
     -1.54165      2.90702      5.73255        -0.085532     -0.000000      0.000000
      0.97591      1.45351      1.14650        -0.085532     -0.000000      0.000000
     -0.77082      1.33511      3.43953        -0.042766      0.074073      0.000000
     -1.74673      3.02542     10.31858         0.042766     -0.074073      0.000000
     -0.77083      4.24212     12.61160        -0.042766      0.074073      0.000000
      1.74673      2.78861      8.02555        -0.042766      0.074073      0.000000
      0.77082      1.57191      5.73255         0.042766     -0.074073      0.000000
      3.28838      0.11840      1.14650         0.042766     -0.074073      0.000000
      1.74673      3.02542      3.43953        -0.042766     -0.074073      0.000000
      0.77082      1.33511     10.31858         0.042766      0.074073      0.000000
     -0.77083      1.57191     12.61160        -0.042766     -0.074073      0.000000
      0.77082      4.24212      5.73255         0.042766      0.074073      0.000000
      1.74673      0.11840      8.02555        -0.042766     -0.074073      0.000000
      3.28838      2.78861      1.14650         0.042766      0.074073      0.000000
 -----------------------------------------------------------------------------------
    total drift:                                0.014943     -0.016505     -0.000011


--------------------------------------------------------------------------------------------------------



  FREE ENERGIE OF THE ION-ELECTRON SYSTEM (eV)
  ---------------------------------------------------
  free  energy   TOTEN  =      -221.35775835 eV

  energy  without entropy=     -221.35775835  energy(sigma->0) =     -221.35775835
 


--------------------------------------------------------------------------------------------------------


    POTLOK:  cpu time    0.0883: real time    0.0886


--------------------------------------------------------------------------------------------------------


     LOOP+:  cpu time  345.2351: real time  346.2490
    4ORBIT:  cpu time    0.0000: real time    0.0000
 


 total charge     
 
# of ion       s       p       d       tot
------------------------------------------
    1        0.284   6.340   5.852  12.476
    2        0.284   6.340   5.855  12.479
    3        0.284   6.340   5.862  12.486
    4        0.284   6.340   5.852  12.475
    5        0.284   6.340   5.855  12.478
    6        0.284   6.340   5.865  12.489
    7        0.284   6.340   5.851  12.474
    8        0.284   6.340   5.853  12.477
    9        0.283   6.340   5.854  12.477
   10        0.283   6.340   5.869  12.492
   11        0.283   6.340   5.866  12.489
   12        0.283   6.340   5.857  12.480
   13        1.570   3.414   0.000   4.984
   14        1.570   3.414   0.000   4.984
   15        1.570   3.414   0.000   4.984
   16        1.570   3.415   0.000   4.985
   17        1.570   3.415   0.000   4.985
   18        1.570   3.414   0.000   4.984
   19        1.569   3.402   0.000   4.971
   20        1.569   3.401   0.000   4.971
   21        1.569   3.402   0.000   4.972
   22        1.569   3.402   0.000   4.972
   23        1.569   3.403   0.000   4.972
   24        1.569   3.403   0.000   4.972
   25        1.571   3.415   0.000   4.986
   26        1.571   3.415   0.000   4.986
   27        1.571   3.416   0.000   4.987
   28        1.571   3.417   0.000   4.989
   29        1.571   3.417   0.000   4.988
   30        1.571   3.417   0.000   4.988
--------------------------------------------------
tot         31.668 137.475  70.291 239.434
 


 magnetization (x)
 
# of ion       s       p       d       tot
------------------------------------------
    1        0.024   0.036   3.138   3.199
    2        0.024   0.036   3.135   3.196
    3        0.025   0.036   3.132   3.193
    4        0.025   0.036   3.138   3.199
    5        0.025   0.036   3.138   3.199
    6        0.025   0.036   3.130   3.190
    7        0.024   0.036   3.122   3.183
    8        0.024   0.036   3.120   3.180
    9        0.025   0.036   3.120   3.181
   10        0.025   0.036   3.114   3.175
   11        0.025   0.036   3.116   3.177
   12        0.025   0.036   3.120   3.181
   13        0.020   0.139   0.000   0.159
   14        0.020   0.138   0.000   0.159
   15        0.020   0.139   0.000   0.159
   16        0.020   0.140   0.000   0.160
   17        0.020   0.140   0.000   0.160
   18        0.020   0.139   0.000   0.159
   19        0.021   0.143   0.000   0.164
   20        0.021   0.143   0.000   0.164
   21        0.021   0.144   0.000   0.165
   22        0.021   0.143   0.000   0.165
   23        0.021   0.144   0.000   0.165
   24        0.021   0.144   0.000   0.165
   25        0.020   0.135   0.000   0.156
   26        0.020   0.134   0.000   0.155
   27        0.020   0.136   0.000   0.156
   28        0.020   0.137   0.000   0.158
   29        0.020   0.137   0.000   0.157
   30        0.020   0.136   0.000   0.157
--------------------------------------------------
tot          0.668   2.942  37.525  41.135
 
 BZINTS: Fermi energy:  6.184816;276.000000 electrons
         Band energy:***********;  BLOECHL correction: -0.033106

 total amount of memory used by VASP MPI-rank0    86125. kBytes
=======================================================================

   base      :      30000. kBytes
   nonlr-proj:       8320. kBytes
   fftplans  :       3515. kBytes
   grid      :       9039. kBytes
   one-center:        248. kBytes
   wavefun   :      35003. kBytes
 
  
  
 General timing and accounting informations for this job:
 ========================================================
  
                  Total CPU time used (sec):      352.099
                            User time (sec):      350.692
                          System time (sec):        1.407
                         Elapsed time (sec):      353.206
  
                   Maximum memory used (kb):      133204.
                   Average memory used (kb):           0.
  
                          Minor page faults:        70674
                          Major page faults:            0
                 Voluntary context switches:          301
