=========================================
SLURM_JOB_ID = 31798351
SLURM_JOB_NODELIST = lnode18
SLURM_GPUS = 
SLURM_CPUS_ON_NODE = 8
SLURM_JOB_PARTITION = lenovo
SLURM_TASK_PID = 533126
CUDA_VISIBLE_DEVICES = 
==========================================
 running on    8 total cores
 distrk:  each k-point on    8 cores,    1 groups
 distr:  one band on    4 cores,    2 groups
 using from now: INCAR     
 vasp.5.4.4.18Apr17-6-g9f103f2a35 (build Apr 28 2018 00:24:27) complex          
  
 POSCAR found type information on POSCAR  Fe
 POSCAR found :  1 types and       6 ions
 scaLAPACK will be used
 LDA part: xc-table for Pade appr. of Perdew
 POSCAR, INCAR and KPOINTS ok, starting setup
 FFT: planning ...
 WAVECAR not read
 entering main loop
       N       E                     dE             d eps       ncg     rms          rms(c)
DAV:   1     0.384051495335E+03    0.38405E+03   -0.20947E+04  4504   0.224E+03
DAV:   2    -0.130668208589E+02   -0.39712E+03   -0.38831E+03  4480   0.456E+02
DAV:   3    -0.523581823759E+02   -0.39291E+02   -0.36553E+02  7080   0.168E+02
DAV:   4    -0.555645768224E+02   -0.32064E+01   -0.29635E+01  7012   0.496E+01
DAV:   5    -0.557655717601E+02   -0.20099E+00   -0.18783E+00  7340   0.919E+00    0.277E+01
RMM:   6    -0.494267170307E+02    0.63389E+01   -0.77388E+01  4480   0.111E+02    0.165E+01
RMM:   7    -0.557942747012E+02   -0.63676E+01   -0.58245E+01  4507   0.820E+01    0.310E+01
RMM:   8    -0.486623343767E+02    0.71319E+01   -0.12475E+01  4482   0.464E+01    0.819E+00
RMM:   9    -0.488640634622E+02   -0.20173E+00   -0.74110E+00  6065   0.167E+01    0.513E+00
RMM:  10    -0.487166829464E+02    0.14738E+00   -0.61595E-01  4787   0.893E+00    0.196E+00
RMM:  11    -0.487459240493E+02   -0.29241E-01   -0.35582E-01  6468   0.258E+00    0.107E+00
RMM:  12    -0.487604534376E+02   -0.14529E-01   -0.91632E-02  6438   0.126E+00    0.651E-01
RMM:  13    -0.487667232315E+02   -0.62698E-02   -0.26478E-02  6459   0.683E-01    0.452E-01
RMM:  14    -0.487665607991E+02    0.16243E-03   -0.42920E-03  5469   0.475E-01    0.173E-01
RMM:  15    -0.487667491431E+02   -0.18834E-03   -0.30398E-03  6593   0.247E-01    0.653E-02
RMM:  16    -0.487668215152E+02   -0.72372E-04   -0.49855E-04  6599   0.914E-02    0.585E-02
RMM:  17    -0.487668076002E+02    0.13915E-04   -0.15447E-04  5432   0.887E-02    0.185E-02
RMM:  18    -0.487668123010E+02   -0.47008E-05   -0.58516E-05  6150   0.255E-02    0.102E-02
RMM:  19    -0.487668183952E+02   -0.60942E-05   -0.89342E-06  3634   0.153E-02    0.845E-03
RMM:  20    -0.487668197837E+02   -0.13885E-05   -0.50557E-06  3273   0.130E-02    0.334E-03
RMM:  21    -0.487668202700E+02   -0.48628E-06   -0.18349E-06  2934   0.109E-02
   1 F= -.48766820E+02 E0= -.48766820E+02  d E =0.000000E+00  mag=    -0.0000
