 vasp.5.4.4.18Apr17-6-g9f103f2a35 (build Apr 28 2018 00:24:27) complex          
  
 executed on             LinuxIFC date 2021.03.24  17:58:41
 running on    8 total cores
 distrk:  each k-point on    8 cores,    1 groups
 distr:  one band on NCORES_PER_BAND=   4 cores,    2 groups


--------------------------------------------------------------------------------------------------------


 INCAR:
 POTCAR:    PAW_PBE Fe 06Sep2000                  
 POTCAR:    PAW_PBE Fe 06Sep2000                  
   SHA256 =  cd5a22d9368cc8b5cc476bea79732366149640da08ac9009b0e1b7fc627eea28 Fe
   COPYR  = (c) Copyright 06Sep2000 Georg Kresse                                
   COPYR  = This file is part of the software VASP. Any use, copying, and all ot
   COPYR  = If you do not have a valid VASP license, you may not use, copy or di
   VRHFIN =Fe:  d7 s1                                                           
   LEXCH  = PE                                                                  
   EATOM  =   594.3153 eV,   43.6809 Ry                                         
                                                                                
   TITEL  = PAW_PBE Fe 06Sep2000                                                
   LULTRA =        F    use ultrasoft PP ?                                      
   IUNSCR =        1    unscreen: 0-lin 1-nonlin 2-no                           
   RPACOR =    2.000    partial core radius                                     
   POMASS =   55.847; ZVAL   =    8.000    mass and valenz                      
   RCORE  =    2.300    outmost cutoff radius                                   
   RWIGS  =    2.460; RWIGS  =    1.302    wigner-seitz radius (au A)           
   ENMAX  =  267.882; ENMIN  =  200.911 eV                                      
   RCLOC  =    1.701    cutoff for local pot                                    
   LCOR   =        T    correct aug charges                                     
   LPAW   =        T    paw PP                                                  
   EAUG   =  511.368                                                            
   DEXC   =    0.000                                                            
   RMAX   =    2.356    core radius for proj-oper                               
   RAUG   =    1.300    factor for augmentation sphere                          
   RDEP   =    2.442    radius for radial grids                                 
   RDEPT  =    1.890    core radius for aug-charge                              
                                                                                
   Atomic configuration                                                         
    9 entries                                                                   
     n  l   j            E        occ.                                          
     1  0  0.50     -6993.8440   2.0000                                         
     2  0  0.50      -814.6047   2.0000                                         
     2  1  1.50      -693.3689   6.0000                                         
     3  0  0.50       -89.4732   2.0000                                         
     3  1  1.50       -55.6373   6.0000                                         
     3  2  2.50        -3.8151   7.0000                                         
     4  0  0.50        -4.2551   1.0000                                         
     4  1  1.50        -3.4015   0.0000                                         
     4  3  2.50        -1.3606   0.0000                                         
   Description                                                                  
     l       E           TYP  RCUT    TYP  RCUT                                 
     2     -3.8151135     23  2.300                                             
     2     -5.1756961     23  2.300                                             
     0     -4.2550963     23  2.300                                             
     0      7.2035603     23  2.300                                             
     1     -2.7211652     23  2.300                                             
     1     18.4316424     23  2.300                                             
  local pseudopotential read in
  partial core-charges read in
  partial kinetic energy density read in
  atomic valenz-charges read in
  non local Contribution for L=           2  read in
    real space projection operators read in
  non local Contribution for L=           2  read in
    real space projection operators read in
  non local Contribution for L=           0  read in
    real space projection operators read in
  non local Contribution for L=           0  read in
    real space projection operators read in
  non local Contribution for L=           1  read in
    real space projection operators read in
  non local Contribution for L=           1  read in
    real space projection operators read in
    PAW grid and wavefunctions read in
 
   number of l-projection  operators is LMAX  =           6
   number of lm-projection operators is LMMAX =          18
 
  PAW_PBE Fe 06Sep2000                  :
 energy of atom  1       EATOM= -594.3153
 kinetic energy error for atom=    0.0026 (will be added to EATOM!!)
 
 
 POSCAR: Fe2 str #: 5                            
  positions in direct lattice
  No initial velocities read in
 exchange correlation table for  LEXCH =        8
   RHO(1)=    0.500       N(1)  =     2000
   RHO(2)=  100.500       N(2)  =     4000
 


--------------------------------------------------------------------------------------------------------


 ion  position               nearest neighbor table
   1  0.000  0.000  0.000-   3 2.45   6 2.45   3 2.45   6 2.45   3 2.45   6 2.45   3 2.45   6 2.45
                             4 2.83   2 2.83
   2  0.000  0.000  0.333-   3 2.45   3 2.45   3 2.45   3 2.45   5 2.45   5 2.45   5 2.45   5 2.45
                             1 2.83   4 2.83
   3  0.500  0.500  0.167-   2 2.45   2 2.45   2 2.45   2 2.45   1 2.45   1 2.45   1 2.45   1 2.45
                             5 2.83   6 2.83
   4  0.000  0.000  0.667-   6 2.45   6 2.45   6 2.45   6 2.45   5 2.45   5 2.45   5 2.45   5 2.45
                             1 2.83   2 2.83
   5  0.500  0.500  0.500-   2 2.45   4 2.45   2 2.45   4 2.45   2 2.45   4 2.45   2 2.45   4 2.45
                             3 2.83   6 2.83
   6  0.500  0.500  0.833-   4 2.45   4 2.45   4 2.45   4 2.45   1 2.45   1 2.45   1 2.45   1 2.45
                             5 2.83   3 2.83
 
  LATTYP: Found a simple tetragonal cell.
 ALAT       =     2.8280590000
 C/A-ratio  =     3.0000000000
  
  Lattice vectors:
  
 A1 = (   2.8280590000,   0.0000000000,   0.0000000000)
 A2 = (   0.0000000000,   2.8280590000,   0.0000000000)
 A3 = (   0.0000000000,   0.0000000000,   8.4841770000)


Analysis of symmetry for initial positions (statically):
=====================================================================
 Subroutine PRICEL returns following result:
 
  LATTYP: Found a body centered cubic cell.
 ALAT       =     2.8280590019
  
  Lattice vectors:
  
 A1 = (   1.4140295000,   1.4140295000,   1.4140295028)
 A2 = (   1.4140295000,  -1.4140295000,  -1.4140294943)
 A3 = (  -1.4140295000,   1.4140295000,  -1.4140295028)
 
   6 primitive cells build up your supercell.
 

 Routine SETGRP: Setting up the symmetry group for a 
 simple tetragonal supercell.


 Subroutine GETGRP returns: Found 16 space group operations
 (whereof 16 operations were pure point group operations)
 out of a pool of 16 trial point group operations.


The static configuration has the point symmetry D_4h.


Analysis of symmetry for dynamics (positions and initial velocities):
=====================================================================
 Subroutine PRICEL returns following result:
 
  LATTYP: Found a body centered cubic cell.
 ALAT       =     2.8280590019
  
  Lattice vectors:
  
 A1 = (   1.4140295000,   1.4140295000,   1.4140295028)
 A2 = (   1.4140295000,  -1.4140295000,  -1.4140294943)
 A3 = (  -1.4140295000,   1.4140295000,  -1.4140295028)
 
   6 primitive cells build up your supercell.
 

 Routine SETGRP: Setting up the symmetry group for a 
 simple tetragonal supercell.


 Subroutine GETGRP returns: Found 16 space group operations
 (whereof 16 operations were pure point group operations)
 out of a pool of 16 trial point group operations.


The dynamic configuration has the point symmetry D_4h.


Analysis of structural, dynamic, and magnetic symmetry:
=====================================================================
 Subroutine PRICEL returns following result:
 
  LATTYP: Found a body centered tetragonal cell.
 ALAT       =     2.8280590000
 C/A-ratio  =     3.0000000000
  
  Lattice vectors:
  
 A1 = (  -1.4140295000,   1.4140295000,  -4.2420885000)
 A2 = (   1.4140295000,  -1.4140295000,  -4.2420885000)
 A3 = (  -1.4140295000,  -1.4140295000,   4.2420885000)
 
   2 primitive cells build up your supercell.
 

 Routine SETGRP: Setting up the symmetry group for a 
 simple tetragonal supercell.


 Subroutine GETGRP returns: Found 16 space group operations
 (whereof  8 operations were pure point group operations)
 out of a pool of 16 trial point group operations.


The magnetic configuration has the point symmetry C_4v.
 The point group associated with its full space group is D_4h.


 Subroutine INISYM returns: Found 16 space group operations
 (whereof  8 operations are pure point group operations),
 and found     2 'primitive' translations

 
 
 KPOINTS: pymatgen v2021.2.8.1 with grid density =

Automatic generation of k-mesh.
Space group operators:
 irot       det(A)        alpha          n_x          n_y          n_z        tau_x        tau_y        tau_z
    1     1.000000     0.000001     1.000000     0.000000     0.000000     0.000000     0.000000     0.000000
    2     1.000000    90.000000     0.000000     0.000000    -1.000000     0.000000     0.000000     0.000000
    3     1.000000   179.999999     0.000000     0.000000     1.000000     0.000000     0.000000     0.000000
    4     1.000000    90.000000     0.000000     0.000000     1.000000     0.000000     0.000000     0.000000
    5    -1.000000   180.000000     0.000000     1.000000     0.000000     0.000000     0.000000     0.000000
    6    -1.000000   180.000000     0.707107     0.707107     0.000000     0.000000     0.000000     0.000000
    7    -1.000000   180.000000     1.000000     0.000000     0.000000     0.000000     0.000000     0.000000
    8    -1.000000   180.000000     0.707107    -0.707107     0.000000     0.000000     0.000000     0.000000
    9    -1.000000     0.000001     1.000000     0.000000     0.000000    -0.000000    -0.000000    -0.666667
   10    -1.000000    90.000000     0.000000     0.000000    -1.000000    -0.000000    -0.000000    -0.666667
   11    -1.000000   179.999999     0.000000     0.000000     1.000000    -0.000000    -0.000000    -0.666667
   12    -1.000000    90.000000     0.000000     0.000000     1.000000    -0.000000    -0.000000    -0.666667
   13     1.000000   180.000000     0.000000     1.000000     0.000000    -0.000000    -0.000000    -0.666667
   14     1.000000   180.000000     0.707107     0.707107     0.000000    -0.000000    -0.000000    -0.666667
   15     1.000000   180.000000     1.000000     0.000000     0.000000    -0.000000    -0.000000    -0.666667
   16     1.000000   180.000000     0.707107    -0.707107     0.000000    -0.000000    -0.000000    -0.666667
 
 Subroutine IBZKPT returns following result:
 ===========================================
 
 Found     40 irreducible k-points:
 
 Following reciprocal coordinates:
            Coordinates               Weight
  0.062500  0.062500  0.062500      8.000000
  0.187500  0.062500  0.062500     16.000000
  0.312500  0.062500  0.062500     16.000000
  0.437500  0.062500  0.062500     16.000000
  0.187500  0.187500  0.062500      8.000000
  0.312500  0.187500  0.062500     16.000000
  0.437500  0.187500  0.062500     16.000000
  0.312500  0.312500  0.062500      8.000000
  0.437500  0.312500  0.062500     16.000000
  0.437500  0.437500  0.062500      8.000000
  0.062500  0.062500  0.187500      8.000000
  0.187500  0.062500  0.187500     16.000000
  0.312500  0.062500  0.187500     16.000000
  0.437500  0.062500  0.187500     16.000000
  0.187500  0.187500  0.187500      8.000000
  0.312500  0.187500  0.187500     16.000000
  0.437500  0.187500  0.187500     16.000000
  0.312500  0.312500  0.187500      8.000000
  0.437500  0.312500  0.187500     16.000000
  0.437500  0.437500  0.187500      8.000000
  0.062500  0.062500  0.312500      8.000000
  0.187500  0.062500  0.312500     16.000000
  0.312500  0.062500  0.312500     16.000000
  0.437500  0.062500  0.312500     16.000000
  0.187500  0.187500  0.312500      8.000000
  0.312500  0.187500  0.312500     16.000000
  0.437500  0.187500  0.312500     16.000000
  0.312500  0.312500  0.312500      8.000000
  0.437500  0.312500  0.312500     16.000000
  0.437500  0.437500  0.312500      8.000000
  0.062500  0.062500  0.437500      8.000000
  0.187500  0.062500  0.437500     16.000000
  0.312500  0.062500  0.437500     16.000000
  0.437500  0.062500  0.437500     16.000000
  0.187500  0.187500  0.437500      8.000000
  0.312500  0.187500  0.437500     16.000000
  0.437500  0.187500  0.437500     16.000000
  0.312500  0.312500  0.437500      8.000000
  0.437500  0.312500  0.437500     16.000000
  0.437500  0.437500  0.437500      8.000000
 
 Following cartesian coordinates:
            Coordinates               Weight
  0.022100  0.022100  0.007367      8.000000
  0.066300  0.022100  0.007367     16.000000
  0.110500  0.022100  0.007367     16.000000
  0.154700  0.022100  0.007367     16.000000
  0.066300  0.066300  0.007367      8.000000
  0.110500  0.066300  0.007367     16.000000
  0.154700  0.066300  0.007367     16.000000
  0.110500  0.110500  0.007367      8.000000
  0.154700  0.110500  0.007367     16.000000
  0.154700  0.154700  0.007367      8.000000
  0.022100  0.022100  0.022100      8.000000
  0.066300  0.022100  0.022100     16.000000
  0.110500  0.022100  0.022100     16.000000
  0.154700  0.022100  0.022100     16.000000
  0.066300  0.066300  0.022100      8.000000
  0.110500  0.066300  0.022100     16.000000
  0.154700  0.066300  0.022100     16.000000
  0.110500  0.110500  0.022100      8.000000
  0.154700  0.110500  0.022100     16.000000
  0.154700  0.154700  0.022100      8.000000
  0.022100  0.022100  0.036833      8.000000
  0.066300  0.022100  0.036833     16.000000
  0.110500  0.022100  0.036833     16.000000
  0.154700  0.022100  0.036833     16.000000
  0.066300  0.066300  0.036833      8.000000
  0.110500  0.066300  0.036833     16.000000
  0.154700  0.066300  0.036833     16.000000
  0.110500  0.110500  0.036833      8.000000
  0.154700  0.110500  0.036833     16.000000
  0.154700  0.154700  0.036833      8.000000
  0.022100  0.022100  0.051567      8.000000
  0.066300  0.022100  0.051567     16.000000
  0.110500  0.022100  0.051567     16.000000
  0.154700  0.022100  0.051567     16.000000
  0.066300  0.066300  0.051567      8.000000
  0.110500  0.066300  0.051567     16.000000
  0.154700  0.066300  0.051567     16.000000
  0.110500  0.110500  0.051567      8.000000
  0.154700  0.110500  0.051567     16.000000
  0.154700  0.154700  0.051567      8.000000
 
 TETIRR: Found    703 inequivalent tetrahedra from     3072


--------------------------------------------------------------------------------------------------------




 Dimension of arrays:
   k-points           NKPTS =     40   k-points in BZ     NKDIM =     40   number of bands    NBANDS=     28
   number of dos      NEDOS =    301   number of ions     NIONS =      6
   non local maximal  LDIM  =      6   non local SUM 2l+1 LMDIM =     18
   total plane-waves  NPLWV =  36864
   max r-space proj   IRMAX =      1   max aug-charges    IRDMAX=  19550
   dimension x,y,z NGX =    24 NGY =   24 NGZ =   64
   dimension x,y,z NGXF=    48 NGYF=   48 NGZF=  128
   support grid    NGXF=    48 NGYF=   48 NGZF=  128
   ions per type =               6
   NGX,Y,Z   is equivalent  to a cutoff of  14.11, 14.11, 12.54 a.u.
   NGXF,Y,Z  is equivalent  to a cutoff of  28.22, 28.22, 25.08 a.u.

 SYSTEM =  "Fe-alpha"                              
 POSCAR =  Fe2 str #: 5                            

 Startparameter for this run:
   NWRITE =      2    write-flag & timer
   PREC   = accura    normal or accurate (medium, high low for compatibility)
   ISTART =      0    job   : 0-new  1-cont  2-samecut
   ICHARG =      2    charge: 1-file 2-atom 10-const
   ISPIN  =      2    spin polarized calculation?
   LNONCOLLINEAR =      F non collinear calculations
   LSORBIT =      F    spin-orbit coupling
   INIWAV =      1    electr: 0-lowe 1-rand  2-diag
   LASPH  =      T    aspherical Exc in radial PAW
   METAGGA=      F    non-selfconsistent MetaGGA calc.

 Electronic Relaxation 1
   ENCUT  =  520.0 eV  38.22 Ry    6.18 a.u.   5.26  5.26 15.77*2*pi/ulx,y,z
   ENINI  =  520.0     initial cutoff
   ENAUG  =  511.4 eV  augmentation charge cutoff
   NELM   =     60;   NELMIN=  2; NELMDL= -5     # of ELM steps 
   EDIFF  = 0.1E-05   stopping-criterion for ELM
   LREAL  =      F    real-space projection
   NLSPLINE    = F    spline interpolate recip. space projectors
   LCOMPAT=      F    compatible to vasp.4.4
   GGA_COMPAT  = T    GGA compatible to vasp.4.4-vasp.4.6
   LMAXPAW     = -100 max onsite density
   LMAXMIX     =    2 max onsite mixed and CHGCAR
   VOSKOWN=      0    Vosko Wilk Nusair interpolation
   ROPT   =    0.00000
 Ionic relaxation
   EDIFFG = 0.1E-04   stopping-criterion for IOM
   NSW    =      0    number of steps for IOM
   NBLOCK =      1;   KBLOCK =      1    inner block; outer block 
   IBRION =     -1    ionic relax: 0-MD 1-quasi-New 2-CG
   NFREE  =      1    steps in history (QN), initial steepest desc. (CG)
   ISIF   =      2    stress and relaxation
   IWAVPR =     10    prediction:  0-non 1-charg 2-wave 3-comb
   ISYM   =      2    0-nonsym 1-usesym 2-fastsym
   LCORR  =      T    Harris-Foulkes like correction to forces

   POTIM  = 0.5000    time-step for ionic-motion
   TEIN   =    0.0    initial temperature
   TEBEG  =    0.0;   TEEND  =   0.0 temperature during run
   SMASS  =  -3.00    Nose mass-parameter (am)
   estimated Nose-frequenzy (Omega)   =  0.10E-29 period in steps =****** mass=  -0.183E-27a.u.
   SCALEE = 1.0000    scale energy and forces
   NPACO  =    256;   APACO  = 16.0  distance and # of slots for P.C.
   PSTRESS=    0.0 pullay stress

  Mass of Ions in am
   POMASS =  55.85
  Ionic Valenz
   ZVAL   =   8.00
  Atomic Wigner-Seitz radii
   RWIGS  =  -1.00
  virtual crystal weights 
   VCA    =   1.00
   NELECT =      48.0000    total number of electrons
   NUPDOWN=      -1.0000    fix difference up-down

 DOS related values:
   EMIN   =  10.00;   EMAX   =-10.00  energy-range for DOS
   EFERMI =   0.00
   ISMEAR =    -5;   SIGMA  =   0.05  broadening in eV -4-tet -1-fermi 0-gaus

 Electronic relaxation 2 (details)
   IALGO  =     68    algorithm
   LDIAG  =      T    sub-space diagonalisation (order eigenvalues)
   LSUBROT=      F    optimize rotation matrix (better conditioning)
   TURBO    =      0    0=normal 1=particle mesh
   IRESTART =      0    0=no restart 2=restart with 2 vectors
   NREBOOT  =      0    no. of reboots
   NMIN     =      0    reboot dimension
   EREF     =   0.00    reference energy to select bands
   IMIX   =      4    mixing-type and parameters
     AMIX     =   0.40;   BMIX     =  1.00
     AMIX_MAG =   1.60;   BMIX_MAG =  1.00
     AMIN     =   0.10
     WC   =   100.;   INIMIX=   1;  MIXPRE=   1;  MAXMIX= -45

 Intra band minimization:
   WEIMIN = 0.0000     energy-eigenvalue tresh-hold
   EBREAK =  0.89E-08  absolut break condition
   DEPER  =   0.30     relativ break condition  

   TIME   =   0.40     timestep for ELM

  volume/ion in A,a.u.               =      11.31        76.32
  Fermi-wavevector in a.u.,A,eV,Ry     =   1.458679  2.756503 28.949715  2.127744
  Thomas-Fermi vector in A             =   2.575335
 
 Write flags
   LWAVE        =      F    write WAVECAR
   LDOWNSAMPLE  =      F    k-point downsampling of WAVECAR
   LCHARG       =      T    write CHGCAR
   LVTOT        =      F    write LOCPOT, total local potential
   LVHAR        =      F    write LOCPOT, Hartree potential only
   LELF         =      F    write electronic localiz. function (ELF)
   LORBIT       =     11    0 simple, 1 ext, 2 COOP (PROOUT), +10 PAW based schemes


 Dipole corrections
   LMONO  =      F    monopole corrections only (constant potential shift)
   LDIPOL =      F    correct potential (dipole corrections)
   IDIPOL =      0    1-x, 2-y, 3-z, 4-all directions 
   EPSILON=  1.0000000 bulk dielectric constant

 Exchange correlation treatment:
   GGA     =    --    GGA type
   LEXCH   =     8    internal setting for exchange type
   VOSKOWN=      0    Vosko Wilk Nusair interpolation
   LHFCALC =     F    Hartree Fock is set to
   LHFONE  =     F    Hartree Fock one center treatment
   AEXX    =    0.0000 exact exchange contribution

 Linear response parameters
   LEPSILON=     F    determine dielectric tensor
   LRPA    =     F    only Hartree local field effects (RPA)
   LNABLA  =     F    use nabla operator in PAW spheres
   LVEL    =     F    velocity operator in full k-point grid
   LINTERFAST=   F  fast interpolation
   KINTER  =     0    interpolate to denser k-point grid
   CSHIFT  =0.1000    complex shift for real part using Kramers Kronig
   OMEGAMAX=  -1.0    maximum frequency
   DEG_THRESHOLD= 0.2000000E-02 threshold for treating states as degnerate
   RTIME   =   -0.100 relaxation time in fs
  (WPLASMAI=    0.000 imaginary part of plasma frequency in eV, 0.658/RTIME)
   DFIELD  = 0.0000000 0.0000000 0.0000000 field for delta impulse in time
 
 Orbital magnetization related:
   ORBITALMAG=     F  switch on orbital magnetization
   LCHIMAG   =     F  perturbation theory with respect to B field
   DQ        =  0.001000  dq finite difference perturbation B field
   LLRAUG    =     F  two centre corrections for induced B field



--------------------------------------------------------------------------------------------------------


 Static calculation
 charge density and potential will be updated during run
 spin polarized calculation
 RMM-DIIS sequential band-by-band and
  variant of blocked Davidson during initial phase
 perform sub-space diagonalisation
    before iterative eigenvector-optimisation
 modified Broyden-mixing scheme, WC =      100.0
 initial mixing is a Kerker type mixing with AMIX =  0.4000 and BMIX =      1.0000
 Hartree-type preconditioning will be used
 using additional bands            4
 reciprocal scheme for non local part
 use partial core corrections
 calculate Harris-corrections to forces 
   (improved forces if not selfconsistent)
 use gradient corrections 
 use of overlap-Matrix (Vanderbilt PP)
 Fermi weights with tetrahedron method with Bloechl corrections


--------------------------------------------------------------------------------------------------------


  energy-cutoff  :      520.00
  volume of cell :       67.86
      direct lattice vectors                 reciprocal lattice vectors
     2.828059000  0.000000000  0.000000000     0.353599412  0.000000000  0.000000000
     0.000000000  2.828059000  0.000000000     0.000000000  0.353599412  0.000000000
     0.000000000  0.000000000  8.484177000     0.000000000  0.000000000  0.117866471

  length of vectors
     2.828059000  2.828059000  8.484177000     0.353599412  0.353599412  0.117866471


 
 k-points in units of 2pi/SCALE and weight: pymatgen v2021.2.8.1 with grid density =
   0.02209996  0.02209996  0.00736665       0.016
   0.06629989  0.02209996  0.00736665       0.031
   0.11049982  0.02209996  0.00736665       0.031
   0.15469974  0.02209996  0.00736665       0.031
   0.06629989  0.06629989  0.00736665       0.016
   0.11049982  0.06629989  0.00736665       0.031
   0.15469974  0.06629989  0.00736665       0.031
   0.11049982  0.11049982  0.00736665       0.016
   0.15469974  0.11049982  0.00736665       0.031
   0.15469974  0.15469974  0.00736665       0.016
   0.02209996  0.02209996  0.02209996       0.016
   0.06629989  0.02209996  0.02209996       0.031
   0.11049982  0.02209996  0.02209996       0.031
   0.15469974  0.02209996  0.02209996       0.031
   0.06629989  0.06629989  0.02209996       0.016
   0.11049982  0.06629989  0.02209996       0.031
   0.15469974  0.06629989  0.02209996       0.031
   0.11049982  0.11049982  0.02209996       0.016
   0.15469974  0.11049982  0.02209996       0.031
   0.15469974  0.15469974  0.02209996       0.016
   0.02209996  0.02209996  0.03683327       0.016
   0.06629989  0.02209996  0.03683327       0.031
   0.11049982  0.02209996  0.03683327       0.031
   0.15469974  0.02209996  0.03683327       0.031
   0.06629989  0.06629989  0.03683327       0.016
   0.11049982  0.06629989  0.03683327       0.031
   0.15469974  0.06629989  0.03683327       0.031
   0.11049982  0.11049982  0.03683327       0.016
   0.15469974  0.11049982  0.03683327       0.031
   0.15469974  0.15469974  0.03683327       0.016
   0.02209996  0.02209996  0.05156658       0.016
   0.06629989  0.02209996  0.05156658       0.031
   0.11049982  0.02209996  0.05156658       0.031
   0.15469974  0.02209996  0.05156658       0.031
   0.06629989  0.06629989  0.05156658       0.016
   0.11049982  0.06629989  0.05156658       0.031
   0.15469974  0.06629989  0.05156658       0.031
   0.11049982  0.11049982  0.05156658       0.016
   0.15469974  0.11049982  0.05156658       0.031
   0.15469974  0.15469974  0.05156658       0.016
 
 k-points in reciprocal lattice and weights: pymatgen v2021.2.8.1 with grid density =
   0.06250000  0.06250000  0.06250000       0.016
   0.18750000  0.06250000  0.06250000       0.031
   0.31250000  0.06250000  0.06250000       0.031
   0.43750000  0.06250000  0.06250000       0.031
   0.18750000  0.18750000  0.06250000       0.016
   0.31250000  0.18750000  0.06250000       0.031
   0.43750000  0.18750000  0.06250000       0.031
   0.31250000  0.31250000  0.06250000       0.016
   0.43750000  0.31250000  0.06250000       0.031
   0.43750000  0.43750000  0.06250000       0.016
   0.06250000  0.06250000  0.18750000       0.016
   0.18750000  0.06250000  0.18750000       0.031
   0.31250000  0.06250000  0.18750000       0.031
   0.43750000  0.06250000  0.18750000       0.031
   0.18750000  0.18750000  0.18750000       0.016
   0.31250000  0.18750000  0.18750000       0.031
   0.43750000  0.18750000  0.18750000       0.031
   0.31250000  0.31250000  0.18750000       0.016
   0.43750000  0.31250000  0.18750000       0.031
   0.43750000  0.43750000  0.18750000       0.016
   0.06250000  0.06250000  0.31250000       0.016
   0.18750000  0.06250000  0.31250000       0.031
   0.31250000  0.06250000  0.31250000       0.031
   0.43750000  0.06250000  0.31250000       0.031
   0.18750000  0.18750000  0.31250000       0.016
   0.31250000  0.18750000  0.31250000       0.031
   0.43750000  0.18750000  0.31250000       0.031
   0.31250000  0.31250000  0.31250000       0.016
   0.43750000  0.31250000  0.31250000       0.031
   0.43750000  0.43750000  0.31250000       0.016
   0.06250000  0.06250000  0.43750000       0.016
   0.18750000  0.06250000  0.43750000       0.031
   0.31250000  0.06250000  0.43750000       0.031
   0.43750000  0.06250000  0.43750000       0.031
   0.18750000  0.18750000  0.43750000       0.016
   0.31250000  0.18750000  0.43750000       0.031
   0.43750000  0.18750000  0.43750000       0.031
   0.31250000  0.31250000  0.43750000       0.016
   0.43750000  0.31250000  0.43750000       0.031
   0.43750000  0.43750000  0.43750000       0.016
 
 position of ions in fractional coordinates (direct lattice) 
   0.00000000  0.00000000  0.00000000
   0.00000000  0.00000000  0.33333333
   0.50000000  0.50000000  0.16666667
   0.00000000  0.00000000  0.66666667
   0.50000000  0.50000000  0.50000000
   0.50000000  0.50000000  0.83333333
 
 position of ions in cartesian coordinates  (Angst):
   0.00000000  0.00000000  0.00000000
   0.00000000  0.00000000  2.82805900
   1.41402950  1.41402950  1.41402950
   0.00000000  0.00000000  5.65611800
   1.41402950  1.41402950  4.24208850
   1.41402950  1.41402950  7.07014750
 


--------------------------------------------------------------------------------------------------------


 k-point  1 :   0.0625 0.0625 0.0625  plane waves:    1846
 k-point  2 :   0.1875 0.0625 0.0625  plane waves:    1836
 k-point  3 :   0.3125 0.0625 0.0625  plane waves:    1827
 k-point  4 :   0.4375 0.0625 0.0625  plane waves:    1813
 k-point  5 :   0.1875 0.1875 0.0625  plane waves:    1820
 k-point  6 :   0.3125 0.1875 0.0625  plane waves:    1827
 k-point  7 :   0.4375 0.1875 0.0625  plane waves:    1827
 k-point  8 :   0.3125 0.3125 0.0625  plane waves:    1830
 k-point  9 :   0.4375 0.3125 0.0625  plane waves:    1823
 k-point 10 :   0.4375 0.4375 0.0625  plane waves:    1839
 k-point 11 :   0.0625 0.0625 0.1875  plane waves:    1842
 k-point 12 :   0.1875 0.0625 0.1875  plane waves:    1832
 k-point 13 :   0.3125 0.0625 0.1875  plane waves:    1824
 k-point 14 :   0.4375 0.0625 0.1875  plane waves:    1821
 k-point 15 :   0.1875 0.1875 0.1875  plane waves:    1827
 k-point 16 :   0.3125 0.1875 0.1875  plane waves:    1828
 k-point 17 :   0.4375 0.1875 0.1875  plane waves:    1825
 k-point 18 :   0.3125 0.3125 0.1875  plane waves:    1824
 k-point 19 :   0.4375 0.3125 0.1875  plane waves:    1825
 k-point 20 :   0.4375 0.4375 0.1875  plane waves:    1838
 k-point 21 :   0.0625 0.0625 0.3125  plane waves:    1840
 k-point 22 :   0.1875 0.0625 0.3125  plane waves:    1832
 k-point 23 :   0.3125 0.0625 0.3125  plane waves:    1823
 k-point 24 :   0.4375 0.0625 0.3125  plane waves:    1825
 k-point 25 :   0.1875 0.1875 0.3125  plane waves:    1818
 k-point 26 :   0.3125 0.1875 0.3125  plane waves:    1824
 k-point 27 :   0.4375 0.1875 0.3125  plane waves:    1821
 k-point 28 :   0.3125 0.3125 0.3125  plane waves:    1822
 k-point 29 :   0.4375 0.3125 0.3125  plane waves:    1830
 k-point 30 :   0.4375 0.4375 0.3125  plane waves:    1836
 k-point 31 :   0.0625 0.0625 0.4375  plane waves:    1833
 k-point 32 :   0.1875 0.0625 0.4375  plane waves:    1831
 k-point 33 :   0.3125 0.0625 0.4375  plane waves:    1832
 k-point 34 :   0.4375 0.0625 0.4375  plane waves:    1821
 k-point 35 :   0.1875 0.1875 0.4375  plane waves:    1814
 k-point 36 :   0.3125 0.1875 0.4375  plane waves:    1819
 k-point 37 :   0.4375 0.1875 0.4375  plane waves:    1831
 k-point 38 :   0.3125 0.3125 0.4375  plane waves:    1827
 k-point 39 :   0.4375 0.3125 0.4375  plane waves:    1830
 k-point 40 :   0.4375 0.4375 0.4375  plane waves:    1838

 maximum and minimum number of plane-waves per node :       469      444

 maximum number of plane-waves:      1846
 maximum index in each direction: 
   IXMAX=    5   IYMAX=    5   IZMAX=   15
   IXMIN=   -5   IYMIN=   -5   IZMIN=  -16


 parallel 3D FFT for wavefunctions:
    minimum data exchange during FFTs selected (reduces bandwidth)
 parallel 3D FFT for charge:
    minimum data exchange during FFTs selected (reduces bandwidth)


 total amount of memory used by VASP MPI-rank0    46638. kBytes
=======================================================================

   base      :      30000. kBytes
   nonl-proj :       2705. kBytes
   fftplans  :       1519. kBytes
   grid      :       3428. kBytes
   one-center:         62. kBytes
   wavefun   :       8924. kBytes
 
     INWAV:  cpu time    0.0000: real time    0.0001
 Broyden mixing: mesh for mixing (old mesh)
   NGX = 11   NGY = 11   NGZ = 31
  (NGX  = 48   NGY  = 48   NGZ  =128)
  gives a total of   3751 points

 initial charge density was supplied:
 charge density of overlapping atoms calculated
 number of electron      48.0000000 magnetization       0.0000000
 keeping initial charge density in first step


--------------------------------------------------------------------------------------------------------


 Maximum index for augmentation-charges         2329 (set IRDMAX)


--------------------------------------------------------------------------------------------------------


 First call to EWALD:  gamma=   0.435
 Maximum number of real-space cells 4x 4x 2
 Maximum number of reciprocal cells 2x 2x 5

    FEWALD:  cpu time    0.0015: real time    0.0015


--------------------------------------- Iteration      1(   1)  ---------------------------------------


    POTLOK:  cpu time    0.0489: real time    0.0511
    SETDIJ:  cpu time    0.6299: real time    0.6313
     EDDAV:  cpu time    1.4181: real time    1.4307
 BZINTS: Fermi energy: 20.688304; 48.000000 electrons
         Band energy: 695.887831;  BLOECHL correction: -0.150791
       DOS:  cpu time    0.0671: real time    0.0674
    --------------------------------------------
      LOOP:  cpu time    2.1640: real time    2.1806

 eigenvalue-minimisations  :  4504
 total energy-change (2. order) : 0.3840515E+03  (-0.2094745E+04)
 number of electron      48.0000000 magnetization       0.0000000
 augmentation part       48.0000000 magnetization       0.0000000

 Free energy of the ion-electron system (eV)
  ---------------------------------------------------
  alpha Z        PSCENC =       366.67429890
  Ewald energy   TEWEN  =     -3557.77738875
  -Hartree energ DENC   =      -667.14784578
  -exchange      EXHF   =         0.00000000
  -V(xc)+E(xc)   XCENC  =        26.81275317
  PAW double counting   =      3325.77271703    -3372.04695465
  entropy T*S    EENTRO =         0.00000000
  eigenvalues    EBANDS =       695.88783120
  atomic energy  EATOM  =      3565.87608422
  Solvation  Ediel_sol  =         0.00000000
  ---------------------------------------------------
  free energy    TOTEN  =       384.05149534 eV

  energy without entropy =      384.05149534  energy(sigma->0) =      384.05149534


--------------------------------------------------------------------------------------------------------




--------------------------------------- Iteration      1(   2)  ---------------------------------------


     EDDAV:  cpu time    1.3742: real time    1.3783
 BZINTS: Fermi energy: 10.112773; 48.000000 electrons
         Band energy: 298.769515;  BLOECHL correction: -0.071555
       DOS:  cpu time    0.0641: real time    0.0643
    --------------------------------------------
      LOOP:  cpu time    1.4384: real time    1.4427

 eigenvalue-minimisations  :  4480
 total energy-change (2. order) :-0.3971183E+03  (-0.3883090E+03)
 number of electron      48.0000000 magnetization       0.0000000
 augmentation part       48.0000000 magnetization       0.0000000

 Free energy of the ion-electron system (eV)
  ---------------------------------------------------
  alpha Z        PSCENC =       366.67429890
  Ewald energy   TEWEN  =     -3557.77738875
  -Hartree energ DENC   =      -667.14784578
  -exchange      EXHF   =         0.00000000
  -V(xc)+E(xc)   XCENC  =        26.81275317
  PAW double counting   =      3325.77271703    -3372.04695465
  entropy T*S    EENTRO =         0.00000000
  eigenvalues    EBANDS =       298.76951501
  atomic energy  EATOM  =      3565.87608422
  Solvation  Ediel_sol  =         0.00000000
  ---------------------------------------------------
  free energy    TOTEN  =       -13.06682086 eV

  energy without entropy =      -13.06682086  energy(sigma->0) =      -13.06682086


--------------------------------------------------------------------------------------------------------




--------------------------------------- Iteration      1(   3)  ---------------------------------------


     EDDAV:  cpu time    1.9476: real time    1.9524
 BZINTS: Fermi energy:  8.724039; 48.000000 electrons
         Band energy: 259.478153;  BLOECHL correction: -0.042213
       DOS:  cpu time    0.0726: real time    0.0727
    --------------------------------------------
      LOOP:  cpu time    2.0202: real time    2.0251

 eigenvalue-minimisations  :  7080
 total energy-change (2. order) :-0.3929136E+02  (-0.3655286E+02)
 number of electron      48.0000000 magnetization       0.0000000
 augmentation part       48.0000000 magnetization       0.0000000

 Free energy of the ion-electron system (eV)
  ---------------------------------------------------
  alpha Z        PSCENC =       366.67429890
  Ewald energy   TEWEN  =     -3557.77738875
  -Hartree energ DENC   =      -667.14784578
  -exchange      EXHF   =         0.00000000
  -V(xc)+E(xc)   XCENC  =        26.81275317
  PAW double counting   =      3325.77271703    -3372.04695465
  entropy T*S    EENTRO =         0.00000000
  eigenvalues    EBANDS =       259.47815349
  atomic energy  EATOM  =      3565.87608422
  Solvation  Ediel_sol  =         0.00000000
  ---------------------------------------------------
  free energy    TOTEN  =       -52.35818238 eV

  energy without entropy =      -52.35818238  energy(sigma->0) =      -52.35818238


--------------------------------------------------------------------------------------------------------




--------------------------------------- Iteration      1(   4)  ---------------------------------------


     EDDAV:  cpu time    1.9402: real time    1.9449
 BZINTS: Fermi energy:  8.491601; 48.000000 electrons
         Band energy: 256.271759;  BLOECHL correction: -0.033331
       DOS:  cpu time    0.0673: real time    0.0674
    --------------------------------------------
      LOOP:  cpu time    2.0075: real time    2.0123

 eigenvalue-minimisations  :  7012
 total energy-change (2. order) :-0.3206394E+01  (-0.2963514E+01)
 number of electron      48.0000000 magnetization       0.0000000
 augmentation part       48.0000000 magnetization       0.0000000

 Free energy of the ion-electron system (eV)
  ---------------------------------------------------
  alpha Z        PSCENC =       366.67429890
  Ewald energy   TEWEN  =     -3557.77738875
  -Hartree energ DENC   =      -667.14784578
  -exchange      EXHF   =         0.00000000
  -V(xc)+E(xc)   XCENC  =        26.81275317
  PAW double counting   =      3325.77271703    -3372.04695465
  entropy T*S    EENTRO =         0.00000000
  eigenvalues    EBANDS =       256.27175904
  atomic energy  EATOM  =      3565.87608422
  Solvation  Ediel_sol  =         0.00000000
  ---------------------------------------------------
  free energy    TOTEN  =       -55.56457682 eV

  energy without entropy =      -55.56457682  energy(sigma->0) =      -55.56457682


--------------------------------------------------------------------------------------------------------




--------------------------------------- Iteration      1(   5)  ---------------------------------------


     EDDAV:  cpu time    1.9956: real time    2.0020
 BZINTS: Fermi energy:  8.448334; 48.000000 electrons
         Band energy: 256.070764;  BLOECHL correction: -0.032093
       DOS:  cpu time    0.0534: real time    0.0536
    CHARGE:  cpu time    0.1341: real time    0.1344
    MIXING:  cpu time    0.0010: real time    0.0010
    --------------------------------------------
      LOOP:  cpu time    2.1841: real time    2.1909

 eigenvalue-minimisations  :  7340
 total energy-change (2. order) :-0.2009949E+00  (-0.1878291E+00)
 number of electron      48.0000023 magnetization       0.0000000
 augmentation part       21.6025552 magnetization       0.0000000

 Broyden mixing:
  rms(total) = 0.27742E+01    rms(broyden)= 0.27741E+01
  rms(prec ) = 0.33770E+01
  weight for this iteration     100.00

 Free energy of the ion-electron system (eV)
  ---------------------------------------------------
  alpha Z        PSCENC =       366.67429890
  Ewald energy   TEWEN  =     -3557.77738875
  -Hartree energ DENC   =      -667.14784578
  -exchange      EXHF   =         0.00000000
  -V(xc)+E(xc)   XCENC  =        26.81275317
  PAW double counting   =      3325.77271703    -3372.04695465
  entropy T*S    EENTRO =         0.00000000
  eigenvalues    EBANDS =       256.07076411
  atomic energy  EATOM  =      3565.87608422
  Solvation  Ediel_sol  =         0.00000000
  ---------------------------------------------------
  free energy    TOTEN  =       -55.76557176 eV

  energy without entropy =      -55.76557176  energy(sigma->0) =      -55.76557176


--------------------------------------------------------------------------------------------------------




--------------------------------------- Iteration      1(   6)  ---------------------------------------


    POTLOK:  cpu time    0.0387: real time    0.0389
    SETDIJ:  cpu time    0.5378: real time    0.5391
    EDDIAG:  cpu time    0.3117: real time    0.3124
  RMM-DIIS:  cpu time    0.9885: real time    0.9908
    ORTHCH:  cpu time    0.0304: real time    0.0305
 BZINTS: Fermi energy:  5.441471; 48.000000 electrons
         Band energy: 151.614684;  BLOECHL correction: -0.043905
       DOS:  cpu time    0.0581: real time    0.0582
    CHARGE:  cpu time    0.1368: real time    0.1371
    MIXING:  cpu time    0.0011: real time    0.0011
    --------------------------------------------
      LOOP:  cpu time    2.1030: real time    2.1081

 eigenvalue-minimisations  :  4480
 total energy-change (2. order) : 0.6338855E+01  (-0.7738790E+01)
 number of electron      48.0000028 magnetization       0.0000000
 augmentation part       25.1859290 magnetization       0.0000000

 Broyden mixing:
  rms(total) = 0.16508E+01    rms(broyden)= 0.16507E+01
  rms(prec ) = 0.20657E+01
  weight for this iteration     100.00

 eigenvalues of (default mixing * dielectric matrix)
  average eigenvalue GAMMA=   0.6095
  0.6095

 Free energy of the ion-electron system (eV)
  ---------------------------------------------------
  alpha Z        PSCENC =       366.67429890
  Ewald energy   TEWEN  =     -3557.77738875
  -Hartree energ DENC   =      -565.36138380
  -exchange      EXHF   =         0.00000000
  -V(xc)+E(xc)   XCENC  =        22.64370374
  PAW double counting   =      3645.72377361    -3678.82048898
  entropy T*S    EENTRO =         0.00000000
  eigenvalues    EBANDS =       151.61468402
  atomic energy  EATOM  =      3565.87608422
  Solvation  Ediel_sol  =         0.00000000
  ---------------------------------------------------
  free energy    TOTEN  =       -49.42671703 eV

  energy without entropy =      -49.42671703  energy(sigma->0) =      -49.42671703


--------------------------------------------------------------------------------------------------------




--------------------------------------- Iteration      1(   7)  ---------------------------------------


    POTLOK:  cpu time    0.0396: real time    0.0399
    SETDIJ:  cpu time    0.5402: real time    0.5415
    EDDIAG:  cpu time    0.3118: real time    0.3125
  RMM-DIIS:  cpu time    0.9921: real time    0.9945
    ORTHCH:  cpu time    0.0304: real time    0.0305
 BZINTS: Fermi energy:  6.454274; 48.000000 electrons
         Band energy: 158.063154;  BLOECHL correction: -0.046344
       DOS:  cpu time    0.0626: real time    0.0627
    CHARGE:  cpu time    0.1351: real time    0.1354
    MIXING:  cpu time    0.0010: real time    0.0010
    --------------------------------------------
      LOOP:  cpu time    2.1128: real time    2.1180

 eigenvalue-minimisations  :  4507
 total energy-change (2. order) :-0.6367558E+01  (-0.5824526E+01)
 number of electron      48.0000023 magnetization       0.0000000
 augmentation part       25.0651771 magnetization       0.0000000

 Broyden mixing:
  rms(total) = 0.31043E+01    rms(broyden)= 0.31043E+01
  rms(prec ) = 0.40994E+01
  weight for this iteration     100.00

 eigenvalues of (default mixing * dielectric matrix)
  average eigenvalue GAMMA=   0.5492
  0.8449  0.2535

 Free energy of the ion-electron system (eV)
  ---------------------------------------------------
  alpha Z        PSCENC =       366.67429890
  Ewald energy   TEWEN  =     -3557.77738875
  -Hartree energ DENC   =      -570.07024956
  -exchange      EXHF   =         0.00000000
  -V(xc)+E(xc)   XCENC  =        23.34001874
  PAW double counting   =      3834.33997734    -3876.24016992
  entropy T*S    EENTRO =         0.00000000
  eigenvalues    EBANDS =       158.06315433
  atomic energy  EATOM  =      3565.87608422
  Solvation  Ediel_sol  =         0.00000000
  ---------------------------------------------------
  free energy    TOTEN  =       -55.79427470 eV

  energy without entropy =      -55.79427470  energy(sigma->0) =      -55.79427470


--------------------------------------------------------------------------------------------------------




--------------------------------------- Iteration      1(   8)  ---------------------------------------


    POTLOK:  cpu time    0.0382: real time    0.0384
    SETDIJ:  cpu time    0.5396: real time    0.5409
    EDDIAG:  cpu time    0.3117: real time    0.3124
  RMM-DIIS:  cpu time    0.9824: real time    0.9848
    ORTHCH:  cpu time    0.0311: real time    0.0312
 BZINTS: Fermi energy:  6.092002; 48.000000 electrons
         Band energy: 170.648209;  BLOECHL correction: -0.032195
       DOS:  cpu time    0.0563: real time    0.0564
    CHARGE:  cpu time    0.1346: real time    0.1349
    MIXING:  cpu time    0.0010: real time    0.0010
    --------------------------------------------
      LOOP:  cpu time    2.0949: real time    2.1000

 eigenvalue-minimisations  :  4482
 total energy-change (2. order) : 0.7131940E+01  (-0.1247525E+01)
 number of electron      48.0000026 magnetization       0.0000000
 augmentation part       24.8678744 magnetization       0.0000000

 Broyden mixing:
  rms(total) = 0.81936E+00    rms(broyden)= 0.81924E+00
  rms(prec ) = 0.11172E+01
  weight for this iteration     100.00

 eigenvalues of (default mixing * dielectric matrix)
  average eigenvalue GAMMA=   0.6331
  1.1410  0.4885  0.2698

 Free energy of the ion-electron system (eV)
  ---------------------------------------------------
  alpha Z        PSCENC =       366.67429890
  Ewald energy   TEWEN  =     -3557.77738875
  -Hartree energ DENC   =      -571.38801167
  -exchange      EXHF   =         0.00000000
  -V(xc)+E(xc)   XCENC  =        23.53256125
  PAW double counting   =      3940.22886550    -3986.45695315
  entropy T*S    EENTRO =         0.00000000
  eigenvalues    EBANDS =       170.64820933
  atomic energy  EATOM  =      3565.87608422
  Solvation  Ediel_sol  =         0.00000000
  ---------------------------------------------------
  free energy    TOTEN  =       -48.66233438 eV

  energy without entropy =      -48.66233438  energy(sigma->0) =      -48.66233438


--------------------------------------------------------------------------------------------------------




--------------------------------------- Iteration      1(   9)  ---------------------------------------


    POTLOK:  cpu time    0.0383: real time    0.0385
    SETDIJ:  cpu time    0.5390: real time    0.5403
    EDDIAG:  cpu time    0.3113: real time    0.3121
  RMM-DIIS:  cpu time    1.3056: real time    1.3087
    ORTHCH:  cpu time    0.0307: real time    0.0308
 BZINTS: Fermi energy:  6.017171; 48.000000 electrons
         Band energy: 171.417674;  BLOECHL correction: -0.030545
       DOS:  cpu time    0.0597: real time    0.0599
    CHARGE:  cpu time    0.1356: real time    0.1360
    MIXING:  cpu time    0.0010: real time    0.0010
    --------------------------------------------
      LOOP:  cpu time    2.4213: real time    2.4271

 eigenvalue-minimisations  :  6065
 total energy-change (2. order) :-0.2017291E+00  (-0.7410971E+00)
 number of electron      48.0000026 magnetization       0.0000000
 augmentation part       24.9021983 magnetization       0.0000000

 Broyden mixing:
  rms(total) = 0.51261E+00    rms(broyden)= 0.51258E+00
  rms(prec ) = 0.73898E+00
  weight for this iteration     100.00

 eigenvalues of (default mixing * dielectric matrix)
  average eigenvalue GAMMA=   0.6643
  1.2721  0.5419  0.5419  0.3014

 Free energy of the ion-electron system (eV)
  ---------------------------------------------------
  alpha Z        PSCENC =       366.67429890
  Ewald energy   TEWEN  =     -3557.77738875
  -Hartree energ DENC   =      -570.37516964
  -exchange      EXHF   =         0.00000000
  -V(xc)+E(xc)   XCENC  =        24.37447102
  PAW double counting   =      4034.33845348    -4083.39248639
  entropy T*S    EENTRO =         0.00000000
  eigenvalues    EBANDS =       171.41767370
  atomic energy  EATOM  =      3565.87608422
  Solvation  Ediel_sol  =         0.00000000
  ---------------------------------------------------
  free energy    TOTEN  =       -48.86406346 eV

  energy without entropy =      -48.86406346  energy(sigma->0) =      -48.86406346


--------------------------------------------------------------------------------------------------------




--------------------------------------- Iteration      1(  10)  ---------------------------------------


    POTLOK:  cpu time    0.0386: real time    0.0388
    SETDIJ:  cpu time    0.5394: real time    0.5406
    EDDIAG:  cpu time    0.3143: real time    0.3150
  RMM-DIIS:  cpu time    1.0509: real time    1.0534
    ORTHCH:  cpu time    0.0314: real time    0.0315
 BZINTS: Fermi energy:  6.155052; 48.000000 electrons
         Band energy: 173.621560;  BLOECHL correction: -0.030709
       DOS:  cpu time    0.0588: real time    0.0590
    CHARGE:  cpu time    0.1352: real time    0.1355
    MIXING:  cpu time    0.0012: real time    0.0012
    --------------------------------------------
      LOOP:  cpu time    2.1698: real time    2.1750

 eigenvalue-minimisations  :  4787
 total energy-change (2. order) : 0.1473805E+00  (-0.6159477E-01)
 number of electron      48.0000026 magnetization      -0.0000000
 augmentation part       24.8377280 magnetization      -0.0000000

 Broyden mixing:
  rms(total) = 0.19641E+00    rms(broyden)= 0.19640E+00
  rms(prec ) = 0.20233E+00
  weight for this iteration     100.00

 eigenvalues of (default mixing * dielectric matrix)
  average eigenvalue GAMMA=   0.8059
  1.8947  0.7343  0.7343  0.3331  0.3331

 Free energy of the ion-electron system (eV)
  ---------------------------------------------------
  alpha Z        PSCENC =       366.67429890
  Ewald energy   TEWEN  =     -3557.77738875
  -Hartree energ DENC   =      -570.25618436
  -exchange      EXHF   =         0.00000000
  -V(xc)+E(xc)   XCENC  =        24.45352706
  PAW double counting   =      4120.42449329    -4171.73307351
  entropy T*S    EENTRO =         0.00000000
  eigenvalues    EBANDS =       173.62156021
  atomic energy  EATOM  =      3565.87608422
  Solvation  Ediel_sol  =         0.00000000
  ---------------------------------------------------
  free energy    TOTEN  =       -48.71668295 eV

  energy without entropy =      -48.71668295  energy(sigma->0) =      -48.71668295


--------------------------------------------------------------------------------------------------------




--------------------------------------- Iteration      1(  11)  ---------------------------------------


    POTLOK:  cpu time    0.0381: real time    0.0385
    SETDIJ:  cpu time    0.5363: real time    0.5375
    EDDIAG:  cpu time    0.3124: real time    0.3131
  RMM-DIIS:  cpu time    1.3822: real time    1.3854
    ORTHCH:  cpu time    0.0302: real time    0.0302
 BZINTS: Fermi energy:  6.170678; 48.000000 electrons
         Band energy: 173.732863;  BLOECHL correction: -0.030657
       DOS:  cpu time    0.0566: real time    0.0568
    CHARGE:  cpu time    0.1371: real time    0.1374
    MIXING:  cpu time    0.0011: real time    0.0011
    --------------------------------------------
      LOOP:  cpu time    2.4940: real time    2.5002

 eigenvalue-minimisations  :  6468
 total energy-change (2. order) :-0.2924110E-01  (-0.3558177E-01)
 number of electron      48.0000026 magnetization      -0.0000000
 augmentation part       24.8400050 magnetization      -0.0000000

 Broyden mixing:
  rms(total) = 0.10714E+00    rms(broyden)= 0.10714E+00
  rms(prec ) = 0.11165E+00
  weight for this iteration     100.00

 eigenvalues of (default mixing * dielectric matrix)
  average eigenvalue GAMMA=   0.8640
  2.2276  0.8258  0.8258  0.3425  0.3425  0.6196

 Free energy of the ion-electron system (eV)
  ---------------------------------------------------
  alpha Z        PSCENC =       366.67429890
  Ewald energy   TEWEN  =     -3557.77738875
  -Hartree energ DENC   =      -568.65499695
  -exchange      EXHF   =         0.00000000
  -V(xc)+E(xc)   XCENC  =        24.94688165
  PAW double counting   =      4225.49607439    -4279.03974066
  entropy T*S    EENTRO =         0.00000000
  eigenvalues    EBANDS =       173.73286315
  atomic energy  EATOM  =      3565.87608422
  Solvation  Ediel_sol  =         0.00000000
  ---------------------------------------------------
  free energy    TOTEN  =       -48.74592405 eV

  energy without entropy =      -48.74592405  energy(sigma->0) =      -48.74592405


--------------------------------------------------------------------------------------------------------




--------------------------------------- Iteration      1(  12)  ---------------------------------------


    POTLOK:  cpu time    0.0383: real time    0.0384
    SETDIJ:  cpu time    0.5373: real time    0.5386
    EDDIAG:  cpu time    0.3122: real time    0.3129
  RMM-DIIS:  cpu time    1.3621: real time    1.3653
    ORTHCH:  cpu time    0.0312: real time    0.0313
 BZINTS: Fermi energy:  6.162630; 48.000000 electrons
         Band energy: 173.367590;  BLOECHL correction: -0.030269
       DOS:  cpu time    0.0557: real time    0.0558
    CHARGE:  cpu time    0.1360: real time    0.1364
    MIXING:  cpu time    0.0012: real time    0.0012
    --------------------------------------------
      LOOP:  cpu time    2.4740: real time    2.4800

 eigenvalue-minimisations  :  6438
 total energy-change (2. order) :-0.1452939E-01  (-0.9163239E-02)
 number of electron      48.0000026 magnetization       0.0000000
 augmentation part       24.8629041 magnetization       0.0000000

 Broyden mixing:
  rms(total) = 0.65117E-01    rms(broyden)= 0.65114E-01
  rms(prec ) = 0.77909E-01
  weight for this iteration     100.00

 eigenvalues of (default mixing * dielectric matrix)
  average eigenvalue GAMMA=   1.1007
  3.4086  1.3816  0.3448  0.3448  0.8077  0.8077  0.6099

 Free energy of the ion-electron system (eV)
  ---------------------------------------------------
  alpha Z        PSCENC =       366.67429890
  Ewald energy   TEWEN  =     -3557.77738875
  -Hartree energ DENC   =      -567.58906427
  -exchange      EXHF   =         0.00000000
  -V(xc)+E(xc)   XCENC  =        25.05748293
  PAW double counting   =      4280.74424474    -4335.11370161
  entropy T*S    EENTRO =         0.00000000
  eigenvalues    EBANDS =       173.36759041
  atomic energy  EATOM  =      3565.87608422
  Solvation  Ediel_sol  =         0.00000000
  ---------------------------------------------------
  free energy    TOTEN  =       -48.76045344 eV

  energy without entropy =      -48.76045344  energy(sigma->0) =      -48.76045344


--------------------------------------------------------------------------------------------------------




--------------------------------------- Iteration      1(  13)  ---------------------------------------


    POTLOK:  cpu time    0.0379: real time    0.0381
    SETDIJ:  cpu time    0.5411: real time    0.5424
    EDDIAG:  cpu time    0.3132: real time    0.3139
  RMM-DIIS:  cpu time    1.3834: real time    1.3867
    ORTHCH:  cpu time    0.0307: real time    0.0308
 BZINTS: Fermi energy:  6.167189; 48.000000 electrons
         Band energy: 173.023606;  BLOECHL correction: -0.030624
       DOS:  cpu time    0.0564: real time    0.0565
    CHARGE:  cpu time    0.1366: real time    0.1370
    MIXING:  cpu time    0.0012: real time    0.0012
    --------------------------------------------
      LOOP:  cpu time    2.5006: real time    2.5066

 eigenvalue-minimisations  :  6459
 total energy-change (2. order) :-0.6269794E-02  (-0.2647823E-02)
 number of electron      48.0000026 magnetization       0.0000000
 augmentation part       24.8758657 magnetization       0.0000000

 Broyden mixing:
  rms(total) = 0.45184E-01    rms(broyden)= 0.45183E-01
  rms(prec ) = 0.55809E-01
  weight for this iteration     100.00

 eigenvalues of (default mixing * dielectric matrix)
  average eigenvalue GAMMA=   1.0186
  2.8796  1.5769  0.8925  0.8925  0.3445  0.3445  0.6436  0.5748

 Free energy of the ion-electron system (eV)
  ---------------------------------------------------
  alpha Z        PSCENC =       366.67429890
  Ewald energy   TEWEN  =     -3557.77738875
  -Hartree energ DENC   =      -566.87731757
  -exchange      EXHF   =         0.00000000
  -V(xc)+E(xc)   XCENC  =        25.24832130
  PAW double counting   =      4334.19815385    -4389.13248089
  entropy T*S    EENTRO =         0.00000000
  eigenvalues    EBANDS =       173.02360571
  atomic energy  EATOM  =      3565.87608422
  Solvation  Ediel_sol  =         0.00000000
  ---------------------------------------------------
  free energy    TOTEN  =       -48.76672323 eV

  energy without entropy =      -48.76672323  energy(sigma->0) =      -48.76672323


--------------------------------------------------------------------------------------------------------




--------------------------------------- Iteration      1(  14)  ---------------------------------------


    POTLOK:  cpu time    0.0387: real time    0.0389
    SETDIJ:  cpu time    0.5401: real time    0.5423
    EDDIAG:  cpu time    0.3223: real time    0.3257
  RMM-DIIS:  cpu time    1.2422: real time    1.2575
    ORTHCH:  cpu time    0.0322: real time    0.0322
 BZINTS: Fermi energy:  6.169428; 48.000000 electrons
         Band energy: 173.177033;  BLOECHL correction: -0.030632
       DOS:  cpu time    0.0680: real time    0.0682
    CHARGE:  cpu time    0.1430: real time    0.1433
    MIXING:  cpu time    0.0014: real time    0.0014
    --------------------------------------------
      LOOP:  cpu time    2.3880: real time    2.4096

 eigenvalue-minimisations  :  5469
 total energy-change (2. order) : 0.1624325E-03  (-0.4291996E-03)
 number of electron      48.0000026 magnetization       0.0000000
 augmentation part       24.8714686 magnetization       0.0000000

 Broyden mixing:
  rms(total) = 0.17281E-01    rms(broyden)= 0.17280E-01
  rms(prec ) = 0.25491E-01
  weight for this iteration     100.00

 eigenvalues of (default mixing * dielectric matrix)
  average eigenvalue GAMMA=   1.0177
  3.1174  1.6915  0.9202  0.9202  0.3445  0.3445  0.6507  0.6507  0.5194

 Free energy of the ion-electron system (eV)
  ---------------------------------------------------
  alpha Z        PSCENC =       366.67429890
  Ewald energy   TEWEN  =     -3557.77738875
  -Hartree energ DENC   =      -567.39866751
  -exchange      EXHF   =         0.00000000
  -V(xc)+E(xc)   XCENC  =        25.14148949
  PAW double counting   =      4311.08702249    -4365.54643241
  entropy T*S    EENTRO =         0.00000000
  eigenvalues    EBANDS =       173.17703277
  atomic energy  EATOM  =      3565.87608422
  Solvation  Ediel_sol  =         0.00000000
  ---------------------------------------------------
  free energy    TOTEN  =       -48.76656080 eV

  energy without entropy =      -48.76656080  energy(sigma->0) =      -48.76656080


--------------------------------------------------------------------------------------------------------




--------------------------------------- Iteration      1(  15)  ---------------------------------------


    POTLOK:  cpu time    0.0444: real time    0.0446
    SETDIJ:  cpu time    0.6434: real time    0.6449
    EDDIAG:  cpu time    0.3256: real time    0.3264
  RMM-DIIS:  cpu time    1.4785: real time    1.4822
    ORTHCH:  cpu time    0.0334: real time    0.0335
 BZINTS: Fermi energy:  6.173822; 48.000000 electrons
         Band energy: 173.239926;  BLOECHL correction: -0.030702
       DOS:  cpu time    0.0656: real time    0.0658
    CHARGE:  cpu time    0.1439: real time    0.1442
    MIXING:  cpu time    0.0015: real time    0.0015
    --------------------------------------------
      LOOP:  cpu time    2.7363: real time    2.7430

 eigenvalue-minimisations  :  6593
 total energy-change (2. order) :-0.1883440E-03  (-0.3039849E-03)
 number of electron      48.0000026 magnetization      -0.0000000
 augmentation part       24.8681012 magnetization      -0.0000000

 Broyden mixing:
  rms(total) = 0.65308E-02    rms(broyden)= 0.65302E-02
  rms(prec ) = 0.70309E-02
  weight for this iteration     100.00

 eigenvalues of (default mixing * dielectric matrix)
  average eigenvalue GAMMA=   0.9671
  3.1075  1.6893  0.9624  0.9624  0.6757  0.6757  0.5520  0.3444  0.3444  0.3570

 Free energy of the ion-electron system (eV)
  ---------------------------------------------------
  alpha Z        PSCENC =       366.67429890
  Ewald energy   TEWEN  =     -3557.77738875
  -Hartree energ DENC   =      -567.50718289
  -exchange      EXHF   =         0.00000000
  -V(xc)+E(xc)   XCENC  =        25.15856003
  PAW double counting   =      4311.59721659    -4366.02826315
  entropy T*S    EENTRO =         0.00000000
  eigenvalues    EBANDS =       173.23992591
  atomic energy  EATOM  =      3565.87608422
  Solvation  Ediel_sol  =         0.00000000
  ---------------------------------------------------
  free energy    TOTEN  =       -48.76674914 eV

  energy without entropy =      -48.76674914  energy(sigma->0) =      -48.76674914


--------------------------------------------------------------------------------------------------------




--------------------------------------- Iteration      1(  16)  ---------------------------------------


    POTLOK:  cpu time    0.0436: real time    0.0440
    SETDIJ:  cpu time    0.6465: real time    0.6481
    EDDIAG:  cpu time    0.3273: real time    0.3281
  RMM-DIIS:  cpu time    1.5237: real time    1.5273
    ORTHCH:  cpu time    0.0329: real time    0.0330
 BZINTS: Fermi energy:  6.175483; 48.000000 electrons
         Band energy: 173.280445;  BLOECHL correction: -0.030710
       DOS:  cpu time    0.0662: real time    0.0663
    CHARGE:  cpu time    0.1416: real time    0.1420
    MIXING:  cpu time    0.0015: real time    0.0015
    --------------------------------------------
      LOOP:  cpu time    2.7834: real time    2.7903

 eigenvalue-minimisations  :  6599
 total energy-change (2. order) :-0.7237208E-04  (-0.4985469E-04)
 number of electron      48.0000026 magnetization       0.0000000
 augmentation part       24.8660009 magnetization       0.0000000

 Broyden mixing:
  rms(total) = 0.58475E-02    rms(broyden)= 0.58473E-02
  rms(prec ) = 0.76415E-02
  weight for this iteration     100.00

 eigenvalues of (default mixing * dielectric matrix)
  average eigenvalue GAMMA=   1.0576
  3.1492  1.5323  1.5323  1.0415  0.9231  0.9231  0.3446  0.3446  0.6993  0.6503
  0.4935

 Free energy of the ion-electron system (eV)
  ---------------------------------------------------
  alpha Z        PSCENC =       366.67429890
  Ewald energy   TEWEN  =     -3557.77738875
  -Hartree energ DENC   =      -567.59532491
  -exchange      EXHF   =         0.00000000
  -V(xc)+E(xc)   XCENC  =        25.17179328
  PAW double counting   =      4310.44707795    -4364.84380690
  entropy T*S    EENTRO =         0.00000000
  eigenvalues    EBANDS =       173.28044470
  atomic energy  EATOM  =      3565.87608422
  Solvation  Ediel_sol  =         0.00000000
  ---------------------------------------------------
  free energy    TOTEN  =       -48.76682152 eV

  energy without entropy =      -48.76682152  energy(sigma->0) =      -48.76682152


--------------------------------------------------------------------------------------------------------




--------------------------------------- Iteration      1(  17)  ---------------------------------------


    POTLOK:  cpu time    0.0440: real time    0.0451
    SETDIJ:  cpu time    0.6441: real time    0.6456
    EDDIAG:  cpu time    0.3247: real time    0.3254
  RMM-DIIS:  cpu time    1.2435: real time    1.2465
    ORTHCH:  cpu time    0.0328: real time    0.0329
 BZINTS: Fermi energy:  6.175304; 48.000000 electrons
         Band energy: 173.278407;  BLOECHL correction: -0.030691
       DOS:  cpu time    0.0661: real time    0.0663
    CHARGE:  cpu time    0.1418: real time    0.1421
    MIXING:  cpu time    0.0016: real time    0.0016
    --------------------------------------------
      LOOP:  cpu time    2.4986: real time    2.5055

 eigenvalue-minimisations  :  5432
 total energy-change (2. order) : 0.1391501E-04  (-0.1544682E-04)
 number of electron      48.0000026 magnetization      -0.0000000
 augmentation part       24.8660881 magnetization      -0.0000000

 Broyden mixing:
  rms(total) = 0.18473E-02    rms(broyden)= 0.18472E-02
  rms(prec ) = 0.21051E-02
  weight for this iteration     100.00

 eigenvalues of (default mixing * dielectric matrix)
  average eigenvalue GAMMA=   1.0599
  3.0802  1.6096  1.6096  1.0779  1.0779  1.0850  0.3446  0.3446  0.7044  0.7044
  0.5937  0.4874

 Free energy of the ion-electron system (eV)
  ---------------------------------------------------
  alpha Z        PSCENC =       366.67429890
  Ewald energy   TEWEN  =     -3557.77738875
  -Hartree energ DENC   =      -567.63684358
  -exchange      EXHF   =         0.00000000
  -V(xc)+E(xc)   XCENC  =        25.18010068
  PAW double counting   =      4309.32559967    -4363.68706557
  entropy T*S    EENTRO =         0.00000000
  eigenvalues    EBANDS =       173.27840683
  atomic energy  EATOM  =      3565.87608422
  Solvation  Ediel_sol  =         0.00000000
  ---------------------------------------------------
  free energy    TOTEN  =       -48.76680760 eV

  energy without entropy =      -48.76680760  energy(sigma->0) =      -48.76680760


--------------------------------------------------------------------------------------------------------




--------------------------------------- Iteration      1(  18)  ---------------------------------------


    POTLOK:  cpu time    0.0442: real time    0.0446
    SETDIJ:  cpu time    0.6378: real time    0.6393
    EDDIAG:  cpu time    0.3251: real time    0.3259
  RMM-DIIS:  cpu time    1.3944: real time    1.3978
    ORTHCH:  cpu time    0.0326: real time    0.0327
 BZINTS: Fermi energy:  6.175407; 48.000000 electrons
         Band energy: 173.287128;  BLOECHL correction: -0.030689
       DOS:  cpu time    0.0680: real time    0.0682
    CHARGE:  cpu time    0.1445: real time    0.1449
    MIXING:  cpu time    0.0017: real time    0.0017
    --------------------------------------------
      LOOP:  cpu time    2.6484: real time    2.6550

 eigenvalue-minimisations  :  6150
 total energy-change (2. order) :-0.4700845E-05  (-0.5851640E-05)
 number of electron      48.0000026 magnetization      -0.0000000
 augmentation part       24.8657394 magnetization      -0.0000000

 Broyden mixing:
  rms(total) = 0.10162E-02    rms(broyden)= 0.10161E-02
  rms(prec ) = 0.10226E-02
  weight for this iteration     100.00

 eigenvalues of (default mixing * dielectric matrix)
  average eigenvalue GAMMA=   1.0956
  3.1055  1.8856  1.8856  1.4711  0.9810  0.9810  0.3446  0.3446  0.7347  0.7347
  0.6443  0.6443  0.4863

 Free energy of the ion-electron system (eV)
  ---------------------------------------------------
  alpha Z        PSCENC =       366.67429890
  Ewald energy   TEWEN  =     -3557.77738875
  -Hartree energ DENC   =      -567.65725510
  -exchange      EXHF   =         0.00000000
  -V(xc)+E(xc)   XCENC  =        25.18061926
  PAW double counting   =      4308.79725669    -4363.14755549
  entropy T*S    EENTRO =         0.00000000
  eigenvalues    EBANDS =       173.28712797
  atomic energy  EATOM  =      3565.87608422
  Solvation  Ediel_sol  =         0.00000000
  ---------------------------------------------------
  free energy    TOTEN  =       -48.76681230 eV

  energy without entropy =      -48.76681230  energy(sigma->0) =      -48.76681230


--------------------------------------------------------------------------------------------------------




--------------------------------------- Iteration      1(  19)  ---------------------------------------


    POTLOK:  cpu time    0.0418: real time    0.0419
    SETDIJ:  cpu time    0.6391: real time    0.6406
    EDDIAG:  cpu time    0.3193: real time    0.3200
  RMM-DIIS:  cpu time    0.8704: real time    0.8724
    ORTHCH:  cpu time    0.0329: real time    0.0330
 BZINTS: Fermi energy:  6.175527; 48.000000 electrons
         Band energy: 173.283656;  BLOECHL correction: -0.030692
       DOS:  cpu time    0.0568: real time    0.0569
    CHARGE:  cpu time    0.1438: real time    0.1441
    MIXING:  cpu time    0.0019: real time    0.0019
    --------------------------------------------
      LOOP:  cpu time    2.1058: real time    2.1109

 eigenvalue-minimisations  :  3634
 total energy-change (2. order) :-0.6094205E-05  (-0.8934213E-06)
 number of electron      48.0000026 magnetization      -0.0000000
 augmentation part       24.8658240 magnetization      -0.0000000

 Broyden mixing:
  rms(total) = 0.84463E-03    rms(broyden)= 0.84460E-03
  rms(prec ) = 0.96200E-03
  weight for this iteration     100.00

 eigenvalues of (default mixing * dielectric matrix)
  average eigenvalue GAMMA=   1.1754
  3.3583  2.4586  2.4586  1.4362  0.9753  0.9753  0.3446  0.3446  0.8214  0.8214
  0.6947  0.6947  0.4864  0.5851

 Free energy of the ion-electron system (eV)
  ---------------------------------------------------
  alpha Z        PSCENC =       366.67429890
  Ewald energy   TEWEN  =     -3557.77738875
  -Hartree energ DENC   =      -567.65787826
  -exchange      EXHF   =         0.00000000
  -V(xc)+E(xc)   XCENC  =        25.18212098
  PAW double counting   =      4308.70237297    -4363.05008405
  entropy T*S    EENTRO =         0.00000000
  eigenvalues    EBANDS =       173.28365560
  atomic energy  EATOM  =      3565.87608422
  Solvation  Ediel_sol  =         0.00000000
  ---------------------------------------------------
  free energy    TOTEN  =       -48.76681840 eV

  energy without entropy =      -48.76681840  energy(sigma->0) =      -48.76681840


--------------------------------------------------------------------------------------------------------




--------------------------------------- Iteration      1(  20)  ---------------------------------------


    POTLOK:  cpu time    0.0429: real time    0.0431
    SETDIJ:  cpu time    0.6393: real time    0.6410
    EDDIAG:  cpu time    0.3171: real time    0.3179
  RMM-DIIS:  cpu time    0.7980: real time    0.7999
    ORTHCH:  cpu time    0.0324: real time    0.0325
 BZINTS: Fermi energy:  6.175502; 48.000000 electrons
         Band energy: 173.279134;  BLOECHL correction: -0.030691
       DOS:  cpu time    0.0672: real time    0.0673
    CHARGE:  cpu time    0.1447: real time    0.1451
    MIXING:  cpu time    0.0019: real time    0.0019
    --------------------------------------------
      LOOP:  cpu time    2.0436: real time    2.0487

 eigenvalue-minimisations  :  3273
 total energy-change (2. order) :-0.1388512E-05  (-0.5055699E-06)
 number of electron      48.0000026 magnetization      -0.0000000
 augmentation part       24.8659632 magnetization      -0.0000000

 Broyden mixing:
  rms(total) = 0.33361E-03    rms(broyden)= 0.33357E-03
  rms(prec ) = 0.41483E-03
  weight for this iteration     100.00

 eigenvalues of (default mixing * dielectric matrix)
  average eigenvalue GAMMA=   1.1573
  3.3749  2.4601  2.4601  1.5438  1.0094  1.0094  0.8775  0.8775  0.3446  0.3446
  0.6917  0.6917  0.4880  0.6087  0.5780

 Free energy of the ion-electron system (eV)
  ---------------------------------------------------
  alpha Z        PSCENC =       366.67429890
  Ewald energy   TEWEN  =     -3557.77738875
  -Hartree energ DENC   =      -567.65529877
  -exchange      EXHF   =         0.00000000
  -V(xc)+E(xc)   XCENC  =        25.18477277
  PAW double counting   =      4308.72379914    -4363.07222113
  entropy T*S    EENTRO =         0.00000000
  eigenvalues    EBANDS =       173.27913384
  atomic energy  EATOM  =      3565.87608422
  Solvation  Ediel_sol  =         0.00000000
  ---------------------------------------------------
  free energy    TOTEN  =       -48.76681978 eV

  energy without entropy =      -48.76681978  energy(sigma->0) =      -48.76681978


--------------------------------------------------------------------------------------------------------




--------------------------------------- Iteration      1(  21)  ---------------------------------------


    POTLOK:  cpu time    0.0441: real time    0.0442
    SETDIJ:  cpu time    0.6209: real time    0.6224
    EDDIAG:  cpu time    0.3217: real time    0.3225
  RMM-DIIS:  cpu time    0.7352: real time    0.7369
    ORTHCH:  cpu time    0.0325: real time    0.0326
 BZINTS: Fermi energy:  6.175556; 48.000000 electrons
         Band energy: 173.281602;  BLOECHL correction: -0.030691
       DOS:  cpu time    0.0595: real time    0.0596
    --------------------------------------------
      LOOP:  cpu time    1.8139: real time    1.8183

 eigenvalue-minimisations  :  2934
 total energy-change (2. order) :-0.4862814E-06  (-0.1834859E-06)
 number of electron      48.0000026 magnetization      -0.0000000
 augmentation part       24.8659632 magnetization      -0.0000000

 Free energy of the ion-electron system (eV)
  ---------------------------------------------------
  alpha Z        PSCENC =       366.67429890
  Ewald energy   TEWEN  =     -3557.77738875
  -Hartree energ DENC   =      -567.66048472
  -exchange      EXHF   =         0.00000000
  -V(xc)+E(xc)   XCENC  =        25.18461086
  PAW double counting   =      4308.58596042    -4362.93150289
  entropy T*S    EENTRO =         0.00000000
  eigenvalues    EBANDS =       173.28160169
  atomic energy  EATOM  =      3565.87608422
  Solvation  Ediel_sol  =         0.00000000
  ---------------------------------------------------
  free energy    TOTEN  =       -48.76682027 eV

  energy without entropy =      -48.76682027  energy(sigma->0) =      -48.76682027


--------------------------------------------------------------------------------------------------------




 average (electrostatic) potential at core
  the test charge radii are     1.0103
  (the norm of the test charge is              1.0000)
       1 -43.3793       2 -43.3793       3 -43.1846       4 -43.1846       5 -43.3793
       6 -43.3793
 
 
 
 E-fermi :   6.1756     XC(G=0): -13.1433     alpha+bet :-13.7060


 spin component 1

 k-point     1 :       0.0625    0.0625    0.0625
  band No.  band energies     occupation 
      1      -2.3369      1.00000
      2      -0.4813      1.00000
      3      -0.0154      1.00000
      4       1.3814      1.00000
      5       1.4425      1.00000
      6       2.1957      1.00000
      7       2.4742      1.00000
      8       2.8971      1.00000
      9       3.2894      1.00000
     10       3.6104      1.00000
     11       3.6552      1.00000
     12       3.6884      1.00000
     13       4.0413      1.00000
     14       4.1565      1.00000
     15       4.4252      1.00000
     16       4.5016      1.00000
     17       4.9527      1.00000
     18       5.0196      1.00000
     19       5.0374      1.00000
     20       5.2258      1.00000
     21       5.3461      1.00000
     22       5.6213      1.00000
     23       5.7218      1.00000
     24       5.8393      1.00147
     25       6.0613      1.19251
     26       6.3640      0.00000
     27       6.4397      0.00000
     28       6.9880      0.00000

 k-point     2 :       0.1875    0.0625    0.0625
  band No.  band energies     occupation 
      1      -1.7047      1.00000
      2       0.0036      1.00000
      3       0.4104      1.00000
      4       1.5962      1.00000
      5       1.7013      1.00000
      6       2.2545      1.00000
      7       2.7124      1.00000
      8       2.9538      1.00000
      9       3.3075      1.00000
     10       3.3816      1.00000
     11       3.4818      1.00000
     12       3.6289      1.00000
     13       4.0424      1.00000
     14       4.1630      1.00000
     15       4.2469      1.00000
     16       4.5786      1.00000
     17       4.7944      1.00000
     18       4.9309      1.00000
     19       5.0114      1.00000
     20       5.0327      1.00000
     21       5.0955      1.00000
     22       5.6628      1.00000
     23       5.7932      1.00000
     24       6.0038      1.00297
     25       6.1780      0.39882
     26       6.3653      0.00000
     27       6.4916      0.00000
     28       6.6256      0.00000

 k-point     3 :       0.3125    0.0625    0.0625
  band No.  band energies     occupation 
      1      -0.5424      1.00000
      2       0.7305      1.00000
      3       0.9652      1.00000
      4       1.8026      1.00000
      5       2.0680      1.00000
      6       2.1364      1.00000
      7       2.9418      1.00000
      8       3.0533      1.00000
      9       3.0720      1.00000
     10       3.3696      1.00000
     11       3.7538      1.00000
     12       3.7750      1.00000
     13       3.9822      1.00000
     14       4.0319      1.00000
     15       4.2019      1.00000
     16       4.5572      1.00000
     17       4.6515      1.00000
     18       4.8230      1.00000
     19       4.9926      1.00000
     20       5.1208      1.00000
     21       5.1589      1.00000
     22       5.4936      1.00000
     23       5.7070      1.00000
     24       5.9199      1.00258
     25       6.1719      0.65677
     26       6.4394      0.00000
     27       6.5791      0.00000
     28       6.6864      0.00000

 k-point     4 :       0.4375    0.0625    0.0625
  band No.  band energies     occupation 
      1       0.8485      1.00000
      2       1.2164      1.00000
      3       1.2715      1.00000
      4       1.8035      1.00000
      5       1.9874      1.00000
      6       2.1278      1.00000
      7       2.8651      1.00000
      8       2.8798      1.00000
      9       3.1862      1.00000
     10       3.5125      1.00000
     11       3.7691      1.00000
     12       3.8467      1.00000
     13       3.8593      1.00000
     14       4.2621      1.00000
     15       4.5636      1.00000
     16       4.6084      1.00000
     17       4.8295      1.00000
     18       5.0187      1.00000
     19       5.1190      1.00000
     20       5.1339      1.00000
     21       5.3885      1.00000
     22       5.5088      1.00000
     23       5.5977      1.00000
     24       5.8304      1.00000
     25       6.0327      1.04821
     26       6.4524      0.00000
     27       6.7317      0.00000
     28       6.8038      0.00000

 k-point     5 :       0.1875    0.1875    0.0625
  band No.  band energies     occupation 
      1      -1.1126      1.00000
      2       0.5096      1.00000
      3       0.8777      1.00000
      4       1.8328      1.00000
      5       1.9424      1.00000
      6       2.6006      1.00000
      7       2.6037      1.00000
      8       2.9922      1.00000
      9       3.1233      1.00000
     10       3.2873      1.00000
     11       3.2882      1.00000
     12       3.4453      1.00000
     13       3.9104      1.00000
     14       3.9894      1.00000
     15       3.9985      1.00000
     16       4.7065      1.00000
     17       4.7556      1.00000
     18       4.8038      1.00000
     19       4.9814      1.00000
     20       5.0691      1.00000
     21       5.1300      1.00000
     22       5.4281      1.00000
     23       5.6209      1.00000
     24       6.1778      0.87317
     25       6.2049      0.01966
[...]
      1       1.3240      1.00000
      2       1.5346      1.00000
      3       1.7593      1.00000
      4       1.9122      1.00000
      5       2.0713      1.00000
      6       2.5140      1.00000
      7       2.7210      1.00000
      8       2.8959      1.00000
      9       2.9757      1.00000
     10       3.2941      1.00000
     11       3.3694      1.00000
     12       3.5385      1.00000
     13       3.8518      1.00000
     14       4.1487      1.00000
     15       4.4458      1.00000
     16       4.4659      1.00000
     17       4.5725      1.00000
     18       4.7268      1.00000
     19       4.8662      1.00000
     20       5.0132      1.00000
     21       5.3577      1.00000
     22       5.3891      1.00000
     23       5.5561      1.00000
     24       6.1579      0.69254
     25       6.2434      0.03877
     26       6.7736      0.00000
     27       6.9647      0.00000
     28       7.1398      0.00000

 k-point    38 :       0.3125    0.3125    0.4375
  band No.  band energies     occupation 
      1       0.9885      1.00000
      2       1.3461      1.00000
      3       2.0282      1.00000
      4       2.3095      1.00000
      5       2.3978      1.00000
      6       2.6763      1.00000
      7       2.6915      1.00000
      8       2.7960      1.00000
      9       3.1780      1.00000
     10       3.2119      1.00000
     11       3.3184      1.00000
     12       3.4773      1.00000
     13       3.6600      1.00000
     14       3.7896      1.00000
     15       4.2070      1.00000
     16       4.2346      1.00000
     17       4.3101      1.00000
     18       4.3214      1.00000
     19       4.9455      1.00000
     20       4.9538      1.00000
     21       5.2307      1.00000
     22       5.2862      1.00000
     23       5.4342      1.00000
     24       6.4902     -0.08859
     25       6.7423      0.00000
     26       6.8287      0.00000
     27       6.9260      0.00000
     28       7.1093      0.00000

 k-point    39 :       0.4375    0.3125    0.4375
  band No.  band energies     occupation 
      1       1.4717      1.00000
      2       1.7667      1.00000
      3       1.9990      1.00000
      4       2.2943      1.00000
      5       2.3248      1.00000
      6       2.5157      1.00000
      7       2.8359      1.00000
      8       2.8664      1.00000
      9       3.1108      1.00000
     10       3.2430      1.00000
     11       3.4585      1.00000
     12       3.7860      1.00000
     13       3.9374      1.00000
     14       3.9864      1.00000
     15       4.1196      1.00000
     16       4.2374      1.00000
     17       4.3883      1.00000
     18       4.5089      1.00000
     19       4.8534      1.00000
     20       5.1763      1.00000
     21       5.1939      1.00000
     22       5.2678      1.00000
     23       5.3410      1.00000
     24       6.2099      0.20668
     25       6.7749      0.00000
     26       7.1418      0.00000
     27       7.2095      0.00000
     28       7.4395      0.00000

 k-point    40 :       0.4375    0.4375    0.4375
  band No.  band energies     occupation 
      1       1.4317      1.00000
      2       1.5267      1.00000
      3       2.0765      1.00000
      4       2.3138      1.00000
      5       2.5269      1.00000
      6       2.5898      1.00000
      7       2.6921      1.00000
      8       2.7642      1.00000
      9       3.2594      1.00000
     10       3.4454      1.00000
     11       3.5217      1.00000
     12       3.6101      1.00000
     13       4.0554      1.00000
     14       4.0565      1.00000
     15       4.4657      1.00000
     16       4.6627      1.00000
     17       4.7628      1.00000
     18       4.8667      1.00000
     19       5.0107      1.00000
     20       5.0204      1.00000
     21       5.1484      1.00000
     22       5.2530      1.00000
     23       5.3115      1.00000
     24       5.9462      1.10177
     25       7.1673      0.00000
     26       7.3414      0.00000
     27       7.6187      0.00000
     28       7.9019      0.00000


--------------------------------------------------------------------------------------------------------


 soft charge-density along one line, spin component           1
         0         1         2         3         4         5         6         7         8         9
 total charge-density along one line
 
 soft charge-density along one line, spin component           2
         0         1         2         3         4         5         6         7         8         9
 total charge-density along one line
 
 pseudopotential strength for first ion, spin component:           1
 -5.557  -0.000   0.000   0.000  -0.000  -6.089  -0.000   0.000
 -0.000  -5.530   0.000  -0.000  -0.000  -0.000  -6.063   0.000
  0.000   0.000  -5.755  -0.000   0.000   0.000   0.000  -6.280
  0.000  -0.000  -0.000  -5.530  -0.000   0.000  -0.000  -0.000
 -0.000  -0.000   0.000  -0.000  -5.719  -0.000  -0.000   0.000
 -6.089  -0.000   0.000   0.000  -0.000  -6.579  -0.000   0.000
 -0.000  -6.063   0.000  -0.000  -0.000  -0.000  -6.554   0.000
  0.000   0.000  -6.280  -0.000   0.000   0.000   0.000  -6.764
  0.000  -0.000  -0.000  -6.063  -0.000   0.000  -0.000  -0.000
 -0.000  -0.000   0.000  -0.000  -6.245  -0.000  -0.000   0.000
  0.000  -0.000   0.001  -0.000  -0.000   0.000  -0.000   0.001
  0.000  -0.000   0.003  -0.000  -0.000   0.000  -0.000   0.003
  0.000   0.014   0.000  -0.000   0.000   0.000   0.013   0.000
 -0.000  -0.000   0.010   0.000   0.000  -0.000  -0.000   0.009
 -0.000  -0.000  -0.000   0.014  -0.000  -0.000  -0.000  -0.000
  0.000   0.018   0.000  -0.000   0.000   0.000   0.017   0.000
 -0.000  -0.000   0.012   0.000   0.000  -0.000  -0.000   0.011
 -0.000  -0.000  -0.000   0.018  -0.000  -0.000  -0.000  -0.000
 pseudopotential strength for first ion, spin component:           2
 -4.253   0.000   0.000   0.000  -0.000  -4.825   0.000   0.000
  0.000  -4.295   0.000  -0.000  -0.000   0.000  -4.866   0.000
  0.000   0.000  -4.047   0.000  -0.000   0.000   0.000  -4.626
  0.000  -0.000   0.000  -4.295   0.000   0.000  -0.000   0.000
 -0.000  -0.000  -0.000   0.000  -4.064  -0.000  -0.000  -0.000
 -4.825   0.000   0.000   0.000  -0.000  -5.353   0.000   0.000
  0.000  -4.866   0.000  -0.000  -0.000   0.000  -5.393   0.000
  0.000   0.000  -4.626   0.000  -0.000   0.000   0.000  -5.162
  0.000  -0.000   0.000  -4.866   0.000   0.000  -0.000   0.000
 -0.000  -0.000  -0.000   0.000  -4.643  -0.000  -0.000  -0.000
  0.000  -0.000   0.002   0.000   0.000   0.000  -0.000   0.002
  0.000  -0.000   0.004   0.000   0.000   0.000  -0.000   0.004
  0.000  -0.003   0.000   0.000   0.000   0.000  -0.003   0.000
  0.000  -0.000   0.004   0.000   0.000   0.000  -0.000   0.004
 -0.000   0.000  -0.000  -0.003  -0.000  -0.000   0.000  -0.000
  0.000  -0.005   0.000   0.000   0.000   0.000  -0.005   0.000
  0.000  -0.000   0.004   0.000   0.000   0.000  -0.000   0.004
 -0.000   0.000  -0.000  -0.005  -0.000  -0.000   0.000  -0.000
 total augmentation occupancy for first ion, spin component:           1
  2.061  -0.000   0.000  -0.000   0.000  -1.072  -0.000   0.000   0.000  -0.000   0.000  -0.000  -0.000   0.000   0.000   0.000
  0.000   1.965  -0.000   0.000   0.000   0.000  -0.986  -0.000   0.000  -0.000  -0.000  -0.000  -0.011  -0.000   0.000  -0.004
 -0.000   0.000   3.364   0.000   0.000   0.000   0.000  -2.158   0.000   0.000  -0.058  -0.011   0.000   0.059  -0.000   0.000
 -0.000  -0.000   0.000   1.965  -0.000   0.000   0.000   0.000  -0.986   0.000   0.000   0.000   0.000  -0.000  -0.011  -0.000
  0.000   0.000  -0.000  -0.000   3.389  -0.000   0.000   0.000   0.000  -2.156   0.000   0.000   0.000   0.000  -0.000   0.000
 -1.072  -0.000   0.000  -0.000  -0.000   1.481   0.000   0.000  -0.000   0.000   0.000   0.000   0.000   0.000  -0.000   0.000
  0.000  -0.986   0.000   0.000  -0.000   0.000   1.412   0.000   0.000   0.000   0.000   0.000   0.017   0.000  -0.000   0.001
  0.000   0.000  -2.158   0.000   0.000  -0.000   0.000   2.185   0.000   0.000   0.035   0.009  -0.000  -0.026   0.000   0.000
 -0.000   0.000   0.000  -0.986   0.000   0.000   0.000   0.000   1.412   0.000  -0.000   0.000  -0.000   0.000   0.017  -0.000
 -0.000   0.000   0.000   0.000  -2.156   0.000  -0.000   0.000  -0.000   2.185   0.000  -0.000   0.000   0.000   0.000   0.000
 -0.000  -0.000  -0.058   0.000   0.000   0.000   0.000   0.035  -0.000   0.000   2.408  -0.270  -0.000  -0.005   0.000   0.000
 -0.000   0.000  -0.011   0.000   0.000   0.000  -0.000   0.009   0.000  -0.000  -0.270   0.037   0.000  -0.001  -0.000  -0.000
 -0.000  -0.011  -0.000   0.000   0.000  -0.000   0.017   0.000   0.000   0.000   0.000   0.000   0.294  -0.000   0.000  -0.025
  0.000  -0.000   0.059  -0.000  -0.000   0.000   0.000  -0.026   0.000   0.000  -0.005  -0.001   0.000   0.297  -0.000   0.000
  0.000   0.000  -0.000  -0.011  -0.000  -0.000   0.000   0.000   0.017   0.000   0.000  -0.000   0.000   0.000   0.294  -0.000
 -0.000  -0.004   0.000   0.000  -0.000   0.000   0.001   0.000   0.000   0.000  -0.000   0.000  -0.025   0.000  -0.000   0.002
 -0.000  -0.000  -0.003  -0.000   0.000   0.000   0.000  -0.001  -0.000   0.000  -0.001  -0.000   0.000  -0.025   0.000   0.000
  0.000   0.000  -0.000  -0.004  -0.000  -0.000  -0.000   0.000   0.001  -0.000   0.000   0.000   0.000   0.000  -0.025   0.000
 total augmentation occupancy for first ion, spin component:           2
  1.418  -0.000   0.000   0.000   0.000  -0.472   0.000  -0.000  -0.000  -0.000   0.000   0.000   0.000  -0.000   0.000  -0.000
  0.000   1.232   0.000   0.000  -0.000   0.000  -0.405   0.000   0.000   0.000   0.000   0.000  -0.096  -0.000   0.000   0.003
 -0.000   0.000   2.703   0.000   0.000   0.000  -0.000  -1.234   0.000  -0.000  -0.069  -0.008   0.000   0.068   0.000   0.000
  0.000  -0.000   0.000   1.232  -0.000  -0.000   0.000  -0.000  -0.405  -0.000   0.000   0.000  -0.000   0.000  -0.096   0.000
 -0.000   0.000  -0.000   0.000   2.723   0.000   0.000   0.000   0.000  -1.276   0.000  -0.000   0.000   0.000  -0.000   0.000
 -0.472  -0.000   0.000   0.000   0.000  -0.088   0.000   0.000  -0.000  -0.000   0.000   0.000  -0.000   0.000   0.000  -0.000
 -0.000  -0.405   0.000   0.000   0.000  -0.000  -0.091   0.000   0.000  -0.000   0.000   0.000   0.046  -0.000  -0.000  -0.005
  0.000  -0.000  -1.234   0.000   0.000  -0.000   0.000   0.418  -0.000   0.000   0.061   0.004  -0.000  -0.087   0.000   0.000
  0.000   0.000   0.000  -0.405   0.000  -0.000   0.000   0.000  -0.091   0.000   0.000   0.000  -0.000  -0.000   0.046   0.000
 -0.000  -0.000   0.000   0.000  -1.276   0.000  -0.000   0.000   0.000   0.452   0.000  -0.000   0.000   0.000  -0.000   0.000
  0.000   0.000  -0.069   0.000   0.000   0.000   0.000   0.061   0.000   0.000  -0.221   0.088   0.000  -0.032   0.000   0.000
  0.000   0.000  -0.008   0.000   0.000   0.000   0.000   0.004   0.000   0.000   0.088  -0.015  -0.000  -0.003   0.000  -0.000
 -0.000  -0.096   0.000  -0.000  -0.000   0.000   0.046   0.000   0.000   0.000   0.000   0.000  -0.017   0.000   0.000   0.005
  0.000   0.000   0.068   0.000   0.000   0.000   0.000  -0.087   0.000   0.000  -0.032  -0.003   0.000  -0.002   0.000   0.000
 -0.000   0.000   0.000  -0.096   0.000  -0.000  -0.000  -0.000   0.046  -0.000   0.000  -0.000   0.000   0.000  -0.017   0.000
  0.000   0.003   0.000   0.000  -0.000   0.000  -0.005   0.000  -0.000   0.000   0.000   0.000   0.005   0.000   0.000  -0.001
  0.000  -0.000  -0.001   0.000  -0.000   0.000   0.000   0.002   0.000   0.000  -0.002   0.001   0.000   0.005   0.000   0.000
 -0.000   0.000   0.000   0.003  -0.000   0.000   0.000  -0.000  -0.005   0.000   0.000   0.000   0.000   0.000   0.005   0.000


------------------------ aborting loop because EDIFF is reached ----------------------------------------


 


 total charge     
 
# of ion       s       p       d       tot
------------------------------------------
    1        0.494   0.548   6.235   7.277
    2        0.494   0.548   6.235   7.277
    3        0.496   0.540   6.240   7.277
    4        0.496   0.540   6.240   7.277
    5        0.494   0.548   6.235   7.277
    6        0.494   0.548   6.235   7.277
--------------------------------------------------
tot          2.968   3.273  37.421  43.662
 


 magnetization (x)
 
# of ion       s       p       d       tot
------------------------------------------
    1        0.010  -0.004   2.008   2.014
    2        0.010  -0.004   2.008   2.014
    3       -0.002  -0.034   2.413   2.377
    4        0.002   0.034  -2.413  -2.377
    5       -0.010   0.004  -2.008  -2.014
    6       -0.010   0.004  -2.008  -2.014
--------------------------------------------------
tot          0.000   0.000  -0.000  -0.000
 
    CHARGE:  cpu time    0.1416: real time    0.1421
    FORLOC:  cpu time    0.0017: real time    0.0017
    FORNL :  cpu time    0.4951: real time    0.4966
    STRESS:  cpu time    0.5201: real time    0.5213
    FORCOR:  cpu time    0.0445: real time    0.0446
    FORHAR:  cpu time    0.0051: real time    0.0051
    MIXING:  cpu time    0.0019: real time    0.0019
    OFIELD:  cpu time    0.0000: real time    0.0000

  FORCE on cell =-STRESS in cart. coord.  units (eV):
  Direction    XX          YY          ZZ          XY          YZ          ZX
  --------------------------------------------------------------------------------------
  Alpha Z   366.67430   366.67430   366.67430
  Ewald   -1185.92762 -1185.92762 -1185.92762     0.00000     0.00000    -0.00000
  Hartree   189.68827   189.68827   188.28379    -0.00000    -0.00000    -0.00000
  E(xc)    -237.88971  -237.88971  -237.74439     0.00000     0.00000    -0.00000
  Local     352.80079   352.80079   356.60603     0.00000     0.00000     0.00000
  n-local  -159.74728  -149.52429  -155.46135     2.91199    -0.38106     0.41968
  augment   232.06774   232.06774   231.02745    -0.00000     0.00000    -0.00000
  Kinetic   442.11316   433.27895   436.55611     3.82836     0.29782     0.06647
  Fock        0.00000     0.00000     0.00000     0.00000     0.00000     0.00000
  -------------------------------------------------------------------------------------
  Total       0.47405     0.47405     0.01431     0.00000     0.00000    -0.00000
  in kB      11.19296    11.19296     0.33792     0.00000     0.00000    -0.00000
  external pressure =        7.57 kB  Pullay stress =        0.00 kB


 VOLUME and BASIS-vectors are now :
 -----------------------------------------------------------------------------
  energy-cutoff  :      520.00
  volume of cell :       67.86
      direct lattice vectors                 reciprocal lattice vectors
     2.828059000  0.000000000  0.000000000     0.353599412  0.000000000  0.000000000
     0.000000000  2.828059000  0.000000000     0.000000000  0.353599412  0.000000000
     0.000000000  0.000000000  8.484177000     0.000000000  0.000000000  0.117866471

  length of vectors
     2.828059000  2.828059000  8.484177000     0.353599412  0.353599412  0.117866471


 FORCES acting on ions
    electron-ion (+dipol)            ewald-force                    non-local-force                 convergence-correction
 -----------------------------------------------------------------------------------------------
   -.430E-14 -.959E-14 0.777E+00   0.140E-14 0.663E-14 -.568E-13   0.434E-18 -.759E-18 -.660E+00   0.126E-14 0.150E-14 -.473E-02
   -.431E-14 -.834E-14 -.777E+00   -.707E-14 0.812E-14 0.157E-05   -.434E-18 0.108E-17 0.660E+00   0.155E-14 0.391E-14 0.473E-02
   0.147E-12 -.127E-11 0.235E-04   0.743E-14 -.628E-14 -.157E-05   -.212E-21 0.529E-21 0.254E-20   0.172E-14 0.184E-15 -.303E-08
   -.459E-14 -.883E-14 0.235E-04   -.316E-14 -.168E-14 -.157E-05   0.212E-21 0.318E-21 -.847E-21   0.380E-15 0.278E-14 -.303E-08
   0.147E-12 -.116E-11 0.777E+00   -.273E-15 -.468E-14 0.284E-13   0.434E-18 0.141E-17 -.660E+00   0.382E-14 0.903E-15 -.473E-02
   0.148E-12 -.491E-12 -.777E+00   0.360E-14 0.292E-14 0.157E-05   -.434E-18 -.217E-18 0.660E+00   0.198E-14 0.645E-15 0.473E-02
 -----------------------------------------------------------------------------------------------
   0.429E-12 -.295E-11 -.315E-05   0.193E-14 0.502E-14 0.638E-13   0.000E+00 0.152E-17 0.666E-15   0.107E-13 0.993E-14 0.578E-09
 
 
 POSITION                                       TOTAL-FORCE (eV/Angst)
 -----------------------------------------------------------------------------------
      0.00000      0.00000      0.00000        -0.000000      0.000000      0.112372
      0.00000      0.00000      2.82806        -0.000000     -0.000000     -0.112372
      1.41403      1.41403      1.41403         0.000000     -0.000000      0.000000
      0.00000      0.00000      5.65612        -0.000000     -0.000000      0.000000
      1.41403      1.41403      4.24209        -0.000000      0.000000      0.112372
      1.41403      1.41403      7.07015         0.000000     -0.000000     -0.112372
 -----------------------------------------------------------------------------------
    total drift:                                0.000000     -0.000000     -0.000003


--------------------------------------------------------------------------------------------------------



  FREE ENERGIE OF THE ION-ELECTRON SYSTEM (eV)
  ---------------------------------------------------
  free  energy   TOTEN  =       -48.76682027 eV

  energy  without entropy=      -48.76682027  energy(sigma->0) =      -48.76682027
 


--------------------------------------------------------------------------------------------------------


    POTLOK:  cpu time    0.6902: real time    0.6918


--------------------------------------------------------------------------------------------------------


     LOOP+:  cpu time   50.3139: real time   50.4694
    4ORBIT:  cpu time    0.0000: real time    0.0000
 


 total charge     
 
# of ion       s       p       d       tot
------------------------------------------
    1        0.494   0.548   6.235   7.277
    2        0.494   0.548   6.235   7.277
    3        0.496   0.540   6.240   7.277
    4        0.496   0.540   6.240   7.277
    5        0.494   0.548   6.235   7.277
    6        0.494   0.548   6.235   7.277
--------------------------------------------------
tot          2.968   3.273  37.421  43.662
 


 magnetization (x)
 
# of ion       s       p       d       tot
------------------------------------------
    1        0.010  -0.004   2.008   2.014
    2        0.010  -0.004   2.008   2.014
    3       -0.002  -0.034   2.413   2.377
    4        0.002   0.034  -2.413  -2.377
    5       -0.010   0.004  -2.008  -2.014
    6       -0.010   0.004  -2.008  -2.014
--------------------------------------------------
tot          0.000   0.000  -0.000  -0.000
 
 BZINTS: Fermi energy:  6.175556; 48.000000 electrons
         Band energy: 173.281602;  BLOECHL correction: -0.030691

 total amount of memory used by VASP MPI-rank0    46638. kBytes
=======================================================================

   base      :      30000. kBytes
   nonl-proj :       2705. kBytes
   fftplans  :       1519. kBytes
   grid      :       3428. kBytes
   one-center:         62. kBytes
   wavefun   :       8924. kBytes
 
  
  
 General timing and accounting informations for this job:
 ========================================================
  
                  Total CPU time used (sec):       52.451
                            User time (sec):       51.963
                          System time (sec):        0.488
                         Elapsed time (sec):       53.135
  
                   Maximum memory used (kb):       68636.
                   Average memory used (kb):           0.
  
                          Minor page faults:        27875
                          Major page faults:            0
                 Voluntary context switches:         1370
