=========================================
SLURM_JOB_ID = 43771859
SLURM_JOB_NODELIST = lnode18
SLURM_GPUS = 
SLURM_CPUS_ON_NODE = 8
SLURM_JOB_PARTITION = lenovo
SLURM_TASK_PID = 1381238
CUDA_VISIBLE_DEVICES = 
==========================================
 running on    8 total cores
 distrk:  each k-point on    8 cores,    1 groups
 distr:  one band on    4 cores,    2 groups
 using from now: INCAR     
 vasp.5.4.4.18Apr17-6-g9f103f2a35 (build Apr 28 2018 00:24:27) complex          
  
 POSCAR found type information on POSCAR  Eu O 
 POSCAR found :  2 types and       8 ions
 scaLAPACK will be used

 ----------------------------------------------------------------------------- 
|                                                                             |
|  ADVICE TO THIS USER RUNNING 'VASP/VAMP'   (HEAR YOUR MASTER'S VOICE ...):  |
|                                                                             |
|      You have a (more or less) 'small supercell' and for smaller cells      |
|      it is recommended  to use the reciprocal-space projection scheme!      |
|      The real space optimization is not  efficient for small cells and it   |
|      is also less accurate ...                                              |
|      Therefore set LREAL=.FALSE. in the  INCAR file                         |
|                                                                             |
 ----------------------------------------------------------------------------- 

 LDA part: xc-table for Pade appr. of Perdew
 POSCAR, INCAR and KPOINTS ok, starting setup
 FFT: planning ...
 WAVECAR not read
 entering main loop
       N       E                     dE             d eps       ncg     rms          rms(c)
DAV:   1     0.128537681246E+04    0.12854E+04   -0.31010E+04 59744   0.354E+03
DAV:   2     0.341950208866E+03   -0.94343E+03   -0.85299E+03 68552   0.712E+02
DAV:   3    -0.794637016309E+01   -0.34990E+03   -0.33947E+03 79128   0.366E+02
DAV:   4    -0.753040760652E+02   -0.67358E+02   -0.65582E+02 95832   0.149E+02
DAV:   5    -0.817041519407E+02   -0.64001E+01   -0.59345E+01 98800   0.498E+01    0.385E+01
DAV:   6    -0.923755683056E+02   -0.10671E+02   -0.36332E+02 80848   0.168E+02    0.555E+01
DAV:   7    -0.779676711998E+02    0.14408E+02   -0.22253E+02 68536   0.187E+02    0.268E+01
DAV:   8    -0.836403544034E+02   -0.56727E+01   -0.63242E+01 92480   0.511E+01    0.125E+01
DAV:   9    -0.832432122556E+02    0.39714E+00   -0.59367E+00 90592   0.146E+01    0.523E+00
DAV:  10    -0.832911678352E+02   -0.47956E-01   -0.13407E+00 90960   0.903E+00    0.385E+00
DAV:  11    -0.833023916629E+02   -0.11224E-01   -0.36185E-01 88648   0.536E+00    0.374E+00
DAV:  12    -0.832392638627E+02    0.63128E-01   -0.16389E-01 77936   0.470E+00    0.193E+00
DAV:  13    -0.832255487569E+02    0.13715E-01   -0.73087E-02 97464   0.253E+00    0.620E-01
DAV:  14    -0.832314398154E+02   -0.58911E-02   -0.12336E-02 94840   0.962E-01    0.361E-01
DAV:  15    -0.832326034107E+02   -0.11636E-02   -0.33629E-03 97296   0.537E-01    0.368E-01
DAV:  16    -0.832315162471E+02    0.10872E-02   -0.12373E-03 84752   0.330E-01    0.198E-01
DAV:  17    -0.832317631280E+02   -0.24688E-03   -0.34305E-04 93568   0.194E-01    0.922E-02
DAV:  18    -0.832317553550E+02    0.77730E-05   -0.26429E-04 92064   0.125E-01    0.565E-02
DAV:  19    -0.832317568278E+02   -0.14728E-05   -0.37871E-05 85896   0.889E-02    0.483E-02
DAV:  20    -0.832317543069E+02    0.25210E-05   -0.13381E-04 70448   0.669E-02    0.352E-02
DAV:  21    -0.832317470344E+02    0.72725E-05   -0.22237E-05 75936   0.773E-02    0.283E-02
DAV:  22    -0.832317509226E+02   -0.38882E-05   -0.51606E-06 51616   0.383E-02    0.169E-02
DAV:  23    -0.832317544370E+02   -0.35144E-05   -0.10110E-04 49720   0.297E-02    0.350E-02
DAV:  24    -0.832317524792E+02    0.19577E-05   -0.10031E-05 44264   0.628E-02    0.324E-02
DAV:  25    -0.832317494538E+02    0.30254E-05   -0.12695E-06 39320   0.254E-02    0.281E-02
DAV:  26    -0.832317492034E+02    0.25046E-06   -0.12151E-06 37840   0.230E-02
   1 F= -.83231749E+02 E0= -.83231749E+02  d E =0.000000E+00  mag=     0.0000
