=========================================
SLURM_JOB_ID = 29456390
SLURM_JOB_NODELIST = lnode45
SLURM_GPUS = 
SLURM_CPUS_ON_NODE = 8
SLURM_JOB_PARTITION = lenovo
SLURM_TASK_PID = 3308910
CUDA_VISIBLE_DEVICES = 
==========================================
 running on    8 total cores
 distrk:  each k-point on    8 cores,    1 groups
 distr:  one band on    8 cores,    1 groups
 using from now: INCAR     
 vasp.5.4.4.18Apr17-6-g9f103f2a35 (build Apr 28 2018 00:24:27) complex          
  
 POSCAR found type information on POSCAR  Mn Bi
 POSCAR found :  2 types and      12 ions
 scaLAPACK will be used

 ----------------------------------------------------------------------------- 
|                                                                             |
|           W    W    AA    RRRRR   N    N  II  N    N   GGGG   !!!           |
|           W    W   A  A   R    R  NN   N  II  NN   N  G    G  !!!           |
|           W    W  A    A  R    R  N N  N  II  N N  N  G       !!!           |
|           W WW W  AAAAAA  RRRRR   N  N N  II  N  N N  G  GGG   !            |
|           WW  WW  A    A  R   R   N   NN  II  N   NN  G    G                |
|           W    W  A    A  R    R  N    N  II  N    N   GGGG   !!!           |
|                                                                             |
|      For optimal performance we recommend to set                            |
|        NCORE= 4 - approx SQRT( number of cores)                             |
|      NCORE specifies how many cores store one orbital (NPAR=cpu/NCORE).     |
|      This setting can  greatly improve the performance of VASP for DFT.     |
|      The default,   NCORE=1            might be grossly inefficient         |
|      on modern multi-core architectures or massively parallel machines.     |
|      Do your own testing !!!!                                               |
|      Unfortunately you need to use the default for GW and RPA calculations. |
|      (for HF NCORE is supported but not extensively tested yet)             |
|                                                                             |
 ----------------------------------------------------------------------------- 

 LDA part: xc-table for Pade appr. of Perdew
 POSCAR, INCAR and KPOINTS ok, starting setup
 FFT: planning ...
 WAVECAR not read
 entering main loop
       N       E                     dE             d eps       ncg     rms          rms(c)
DAV:   1     0.550360921125E+03    0.55036E+03   -0.23729E+04290336   0.140E+03
DAV:   2     0.214865332864E+02   -0.52887E+03   -0.51783E+03290632   0.395E+02
DAV:   3    -0.652096649453E+02   -0.86696E+02   -0.83407E+02479866   0.149E+02
DAV:   4    -0.744414265868E+02   -0.92318E+01   -0.90043E+01508594   0.612E+01
DAV:   5    -0.750719792859E+02   -0.63055E+00   -0.62154E+00477752   0.161E+01    0.236E+01
DAV:   6    -0.855555320361E+02   -0.10484E+02   -0.27775E+02529060   0.158E+02    0.562E+01
DAV:   7    -0.677813574745E+02    0.17774E+02   -0.11234E+02498712   0.849E+01    0.911E+00
DAV:   8    -0.686940726841E+02   -0.91272E+00   -0.12802E+01527300   0.235E+01    0.556E+00
DAV:   9    -0.688785820052E+02   -0.18451E+00   -0.34421E+00553392   0.259E+01    0.658E+00
DAV:  10    -0.686292835387E+02    0.24930E+00   -0.15265E+00539600   0.182E+01    0.234E+00
DAV:  11    -0.686958453894E+02   -0.66562E-01   -0.31694E-01515280   0.494E+00    0.171E+00
DAV:  12    -0.687058786637E+02   -0.10033E-01   -0.93189E-02503784   0.474E+00    0.109E+00
DAV:  13    -0.687092582138E+02   -0.33796E-02   -0.45459E-02506474   0.302E+00    0.444E-01
DAV:  14    -0.687092616451E+02   -0.34313E-05   -0.10605E-02492776   0.154E+00    0.162E-01
DAV:  15    -0.687094622304E+02   -0.20059E-03   -0.31891E-03521370   0.671E-01    0.122E-01
DAV:  16    -0.687094327791E+02    0.29451E-04   -0.80485E-04486240   0.398E-01    0.667E-02
DAV:  17    -0.687094394679E+02   -0.66888E-05   -0.19430E-04496850   0.193E-01    0.373E-02
DAV:  18    -0.687094453051E+02   -0.58372E-05   -0.84075E-05514272   0.124E-01    0.261E-02
DAV:  19    -0.687094461828E+02   -0.87769E-06   -0.41742E-05501154   0.981E-02    0.122E-02
DAV:  20    -0.687094500184E+02   -0.38356E-05   -0.13212E-05429552   0.434E-02    0.861E-03
DAV:  21    -0.687094505734E+02   -0.55503E-06   -0.35245E-06258981   0.322E-02
   1 F= -.68709451E+02 E0= -.68709433E+02  d E =-.532679E-04  mag=     0.0000
