<?xml version="1.0" encoding="ISO-8859-1"?>
<modeling>
 <generator>
  <i name="program" type="string">vasp </i>
  <i name="version" type="string">5.4.4.18Apr17-6-g9f103f2a35  </i>
  <i name="subversion" type="string">(build Apr 28 2018 00:24:27) complex            parallel </i>
  <i name="platform" type="string">LinuxIFC </i>
  <i name="date" type="string">2021 04 15 </i>
  <i name="time" type="string">22:15:43 </i>
 </generator>
 <incar>
  <i type="string" name="PREC">accurate</i>
  <i type="string" name="ALGO"> Fast</i>
  <i type="int" name="ISPIN">     2</i>
  <i type="int" name="ICHARG">     2</i>
  <i type="int" name="NELM">   100</i>
  <i type="int" name="IBRION">     2</i>
  <i name="EDIFF">      0.00010000</i>
  <i name="EDIFFG">     -0.01000000</i>
  <i type="int" name="NSW">    99</i>
  <i type="int" name="ISIF">     4</i>
  <i name="SYMPREC">      0.00000001</i>
  <i name="ENCUT">    520.00000000</i>
  <i name="POTIM">      0.30000000</i>
  <v name="MAGMOM">    -10.00000000    -10.00000000     10.00000000     10.00000000      0.60000000      0.60000000      0.60000000      0.60000000</v>
  <i type="string" name="LREAL"> Auto</i>
  <i type="int" name="ISMEAR">     0</i>
  <i name="SIGMA">      0.01000000</i>
  <i type="int" name="LMAXMIX">     4</i>
  <i type="logical" name="LWAVE"> F  </i>
  <i type="logical" name="LCHARG"> F  </i>
  <i type="int" name="LORBIT">    11</i>
  <i type="logical" name="LASPH"> T  </i>
  <v type="int" name="KPOINT_BSE">    -1     0     0     0</v>
  <i type="int" name="NELM">   100</i>
  <i type="logical" name="LASPH"> T  </i>
 </incar>
 <structure name="primitive_cell" >
  <crystal>
   <varray name="basis" >
    <v>       3.59264600       0.00000000       0.00000000 </v>
    <v>       0.00012300       6.22255800       0.00000000 </v>
    <v>      -1.79624400      -1.03704600       5.86666800 </v>
   </varray>
   <i name="volume">    131.15199204 </i>
   <varray name="rec_basis" >
    <v>       0.27834638      -0.00000550       0.08522253 </v>
    <v>       0.00000000       0.16070561       0.02840780 </v>
    <v>       0.00000000       0.00000000       0.17045451 </v>
   </varray>
  </crystal>
  <varray name="positions" >
   <v>       0.25000000      -0.25000000      -0.50000000 </v>
   <v>       0.37500000       0.12500000      -0.25000000 </v>
   <v>       0.12500000       0.37500000       0.25000000 </v>
   <v>      -0.12500000      -0.37500000      -0.25000000 </v>
   <v>      -0.37500000      -0.12500000       0.25000000 </v>
   <v>      -0.50000000      -0.50000000       0.00000000 </v>
   <v>       0.00000000       0.00000000       0.00000000 </v>
   <v>      -0.25000000       0.25000000      -0.50000000 </v>
  </varray>
 </structure>
 <varray name="primitive_index" >
  <v type="int" >        1 </v>
  <v type="int" >        5 </v>
  <v type="int" >        6 </v>
  <v type="int" >        7 </v>
  <v type="int" >        8 </v>
  <v type="int" >        2 </v>
  <v type="int" >        3 </v>
  <v type="int" >        4 </v>
 </varray>
 <kpoints>
  <generation param="Gamma">
   <v type="int" name="divisions">      11        6        6 </v>
   <v name="usershift">      0.00000000       0.00000000       0.00000000 </v>
   <v name="genvec1">      0.09090909       0.00000000       0.00000000 </v>
   <v name="genvec2">      0.00000000       0.16666667       0.00000000 </v>
   <v name="genvec3">      0.00000000       0.00000000       0.16666667 </v>
   <v name="shift">      0.00000000       0.00000000       0.00000000 </v>
  </generation>
  <varray name="kpointlist" >
   <v>       0.00000000       0.00000000       0.00000000 </v>
   <v>       0.09090909       0.00000000      -0.00000000 </v>
   <v>       0.18181818       0.00000000      -0.00000000 </v>
   <v>       0.27272727      -0.00000000      -0.00000000 </v>
   <v>       0.36363636       0.00000000      -0.00000000 </v>
   <v>       0.45454545       0.00000000       0.00000000 </v>
   <v>       0.00000000       0.16666667      -0.00000000 </v>
   <v>       0.09090909       0.16666667      -0.00000000 </v>
   <v>       0.18181818       0.16666667      -0.00000000 </v>
   <v>       0.27272727       0.16666667      -0.00000000 </v>
   <v>       0.36363636       0.16666667      -0.00000000 </v>
   <v>       0.45454545       0.16666667       0.00000000 </v>
   <v>      -0.45454545       0.16666667       0.00000000 </v>
   <v>      -0.36363636       0.16666667       0.00000000 </v>
   <v>      -0.27272727       0.16666667       0.00000000 </v>
   <v>      -0.18181818       0.16666667       0.00000000 </v>
   <v>      -0.09090909       0.16666667       0.00000000 </v>
   <v>       0.00000000       0.33333333      -0.00000000 </v>
   <v>       0.09090909       0.33333333      -0.00000000 </v>
   <v>       0.18181818       0.33333333       0.00000000 </v>
   <v>       0.27272727       0.33333333      -0.00000000 </v>
   <v>       0.36363636       0.33333333      -0.00000000 </v>
   <v>       0.45454545       0.33333333       0.00000000 </v>
   <v>      -0.45454545       0.33333333       0.00000000 </v>
   <v>      -0.36363636       0.33333333       0.00000000 </v>
   <v>      -0.27272727       0.33333333       0.00000000 </v>
   <v>      -0.18181818       0.33333333       0.00000000 </v>
   <v>      -0.09090909       0.33333333       0.00000000 </v>
   <v>       0.00000000       0.50000000      -0.00000000 </v>
   <v>       0.09090909       0.50000000      -0.00000000 </v>
   <v>       0.18181818       0.50000000      -0.00000000 </v>
   <v>       0.27272727       0.50000000      -0.00000000 </v>
   <v>       0.36363636       0.50000000       0.00000000 </v>
   <v>       0.45454545       0.50000000       0.00000000 </v>
   <v>       0.00000000       0.00000000       0.16666667 </v>
   <v>       0.09090909       0.00000000       0.16666667 </v>
   <v>       0.18181818       0.00000000       0.16666667 </v>
   <v>       0.27272727      -0.00000000       0.16666667 </v>
   <v>       0.36363636       0.00000000       0.16666667 </v>
   <v>       0.45454545       0.00000000       0.16666667 </v>
   <v>      -0.45454545       0.00000000       0.16666667 </v>
   <v>      -0.36363636       0.00000000       0.16666667 </v>
   <v>      -0.27272727       0.00000000       0.16666667 </v>
   <v>      -0.18181818       0.00000000       0.16666667 </v>
   <v>      -0.09090909       0.00000000       0.16666667 </v>
   <v>       0.00000000       0.16666667       0.16666667 </v>
   <v>       0.09090909       0.16666667       0.16666667 </v>
   <v>       0.18181818       0.16666667       0.16666667 </v>
   <v>       0.27272727       0.16666667       0.16666667 </v>
   <v>       0.36363636       0.16666667       0.16666667 </v>
   <v>       0.45454545       0.16666667       0.16666667 </v>
   <v>      -0.45454545       0.16666667       0.16666667 </v>
   <v>      -0.36363636       0.16666667       0.16666667 </v>
   <v>      -0.27272727       0.16666667       0.16666667 </v>
   <v>      -0.18181818       0.16666667       0.16666667 </v>
   <v>      -0.09090909       0.16666667       0.16666667 </v>
   <v>       0.00000000       0.33333333       0.16666667 </v>
   <v>       0.09090909       0.33333333       0.16666667 </v>
   <v>       0.18181818       0.33333333       0.16666667 </v>
   <v>       0.27272727       0.33333333       0.16666667 </v>
   <v>       0.36363636       0.33333333       0.16666667 </v>
   <v>       0.45454545       0.33333333       0.16666667 </v>
   <v>      -0.45454545       0.33333333       0.16666667 </v>
   <v>      -0.36363636       0.33333333       0.16666667 </v>
   <v>      -0.27272727       0.33333333       0.16666667 </v>
   <v>      -0.18181818       0.33333333       0.16666667 </v>
   <v>      -0.09090909       0.33333333       0.16666667 </v>
   <v>       0.00000000       0.50000000       0.16666667 </v>
   <v>       0.09090909       0.50000000       0.16666667 </v>
   <v>       0.18181818       0.50000000       0.16666667 </v>
   <v>       0.27272727       0.50000000       0.16666667 </v>
   <v>       0.36363636       0.50000000       0.16666667 </v>
   <v>       0.45454545       0.50000000       0.16666667 </v>
   <v>      -0.45454545       0.50000000       0.16666667 </v>
   <v>      -0.36363636       0.50000000       0.16666667 </v>
   <v>      -0.27272727       0.50000000       0.16666667 </v>
   <v>      -0.18181818       0.50000000       0.16666667 </v>
   <v>      -0.09090909       0.50000000       0.16666667 </v>
   <v>       0.00000000      -0.33333333       0.16666667 </v>
   <v>       0.09090909      -0.33333333       0.16666667 </v>
   <v>       0.18181818      -0.33333333       0.16666667 </v>
   <v>       0.27272727      -0.33333333       0.16666667 </v>
   <v>       0.36363636      -0.33333333       0.16666667 </v>
   <v>       0.45454545      -0.33333333       0.16666667 </v>
   <v>      -0.45454545      -0.33333333       0.16666667 </v>
   <v>      -0.36363636      -0.33333333       0.16666667 </v>
   <v>      -0.27272727      -0.33333333       0.16666667 </v>
   <v>      -0.18181818      -0.33333333       0.16666667 </v>
   <v>      -0.09090909      -0.33333333       0.16666667 </v>
   <v>       0.00000000      -0.16666667       0.16666667 </v>
   <v>       0.09090909      -0.16666667       0.16666667 </v>
   <v>       0.18181818      -0.16666667       0.16666667 </v>
   <v>       0.27272727      -0.16666667       0.16666667 </v>
   <v>       0.36363636      -0.16666667       0.16666667 </v>
   <v>       0.45454545      -0.16666667       0.16666667 </v>
   <v>      -0.45454545      -0.16666667       0.16666667 </v>
   <v>      -0.36363636      -0.16666667       0.16666667 </v>
   <v>      -0.27272727      -0.16666667       0.16666667 </v>
   <v>      -0.18181818      -0.16666667       0.16666667 </v>
   <v>      -0.09090909      -0.16666667       0.16666667 </v>
   <v>       0.00000000       0.00000000       0.33333333 </v>
   <v>       0.09090909       0.00000000       0.33333333 </v>
   <v>       0.18181818       0.00000000       0.33333333 </v>
   <v>       0.27272727      -0.00000000       0.33333333 </v>
   <v>       0.36363636       0.00000000       0.33333333 </v>
   <v>       0.45454545       0.00000000       0.33333333 </v>
   <v>      -0.45454545       0.00000000       0.33333333 </v>
   <v>      -0.36363636       0.00000000       0.33333333 </v>
   <v>      -0.27272727       0.00000000       0.33333333 </v>
   <v>      -0.18181818       0.00000000       0.33333333 </v>
   <v>      -0.09090909       0.00000000       0.33333333 </v>
   <v>       0.00000000       0.16666667       0.33333333 </v>
   <v>       0.09090909       0.16666667       0.33333333 </v>
   <v>       0.18181818       0.16666667       0.33333333 </v>
   <v>       0.27272727       0.16666667       0.33333333 </v>
   <v>       0.36363636       0.16666667       0.33333333 </v>
   <v>       0.45454545       0.16666667       0.33333333 </v>
   <v>      -0.45454545       0.16666667       0.33333333 </v>
   <v>      -0.36363636       0.16666667       0.33333333 </v>
   <v>      -0.27272727       0.16666667       0.33333333 </v>
   <v>      -0.18181818       0.16666667       0.33333333 </v>
   <v>      -0.09090909       0.16666667       0.33333333 </v>
   <v>       0.00000000       0.33333333       0.33333333 </v>
   <v>       0.09090909       0.33333333       0.33333333 </v>
   <v>       0.18181818       0.33333333       0.33333333 </v>
   <v>       0.27272727       0.33333333       0.33333333 </v>
   <v>       0.36363636       0.33333333       0.33333333 </v>
   <v>       0.45454545       0.33333333       0.33333333 </v>
   <v>      -0.45454545       0.33333333       0.33333333 </v>
   <v>      -0.36363636       0.33333333       0.33333333 </v>
   <v>      -0.27272727       0.33333333       0.33333333 </v>
   <v>      -0.18181818       0.33333333       0.33333333 </v>
   <v>      -0.09090909       0.33333333       0.33333333 </v>
   <v>       0.00000000       0.50000000       0.33333333 </v>
   <v>       0.09090909       0.50000000       0.33333333 </v>
   <v>       0.18181818       0.50000000       0.33333333 </v>
   <v>       0.27272727       0.50000000       0.33333333 </v>
   <v>       0.36363636       0.50000000       0.33333333 </v>
   <v>       0.45454545       0.50000000       0.33333333 </v>
   <v>      -0.45454545       0.50000000       0.33333333 </v>
   <v>      -0.36363636       0.50000000       0.33333333 </v>
   <v>      -0.27272727       0.50000000       0.33333333 </v>
   <v>      -0.18181818       0.50000000       0.33333333 </v>
   <v>      -0.09090909       0.50000000       0.33333333 </v>
   <v>       0.00000000      -0.33333333       0.33333333 </v>
   <v>       0.09090909      -0.33333333       0.33333333 </v>
   <v>       0.18181818      -0.33333333       0.33333333 </v>
   <v>       0.27272727      -0.33333333       0.33333333 </v>
   <v>       0.36363636      -0.33333333       0.33333333 </v>
   <v>       0.45454545      -0.33333333       0.33333333 </v>
   <v>      -0.45454545      -0.33333333       0.33333333 </v>
   <v>      -0.36363636      -0.33333333       0.33333333 </v>
   <v>      -0.27272727      -0.33333333       0.33333333 </v>
   <v>      -0.18181818      -0.33333333       0.33333333 </v>
   <v>      -0.09090909      -0.33333333       0.33333333 </v>
   <v>       0.00000000      -0.16666667       0.33333333 </v>
   <v>       0.09090909      -0.16666667       0.33333333 </v>
   <v>       0.18181818      -0.16666667       0.33333333 </v>
   <v>       0.27272727      -0.16666667       0.33333333 </v>
   <v>       0.36363636      -0.16666667       0.33333333 </v>
   <v>       0.45454545      -0.16666667       0.33333333 </v>
   <v>      -0.45454545      -0.16666667       0.33333333 </v>
   <v>      -0.36363636      -0.16666667       0.33333333 </v>
   <v>      -0.27272727      -0.16666667       0.33333333 </v>
   <v>      -0.18181818      -0.16666667       0.33333333 </v>
   <v>      -0.09090909      -0.16666667       0.33333333 </v>
   <v>       0.00000000       0.00000000       0.50000000 </v>
   <v>       0.09090909       0.00000000       0.50000000 </v>
   <v>       0.18181818       0.00000000       0.50000000 </v>
   <v>       0.27272727      -0.00000000       0.50000000 </v>
   <v>       0.36363636       0.00000000       0.50000000 </v>
   <v>       0.45454545       0.00000000       0.50000000 </v>
   <v>       0.00000000       0.16666667       0.50000000 </v>
   <v>       0.09090909       0.16666667       0.50000000 </v>
   <v>       0.18181818       0.16666667       0.50000000 </v>
   <v>       0.27272727       0.16666667       0.50000000 </v>
   <v>       0.36363636       0.16666667       0.50000000 </v>
   <v>       0.45454545       0.16666667       0.50000000 </v>
   <v>      -0.45454545       0.16666667       0.50000000 </v>
   <v>      -0.36363636       0.16666667       0.50000000 </v>
   <v>      -0.27272727       0.16666667       0.50000000 </v>
   <v>      -0.18181818       0.16666667       0.50000000 </v>
   <v>      -0.09090909       0.16666667       0.50000000 </v>
   <v>       0.00000000       0.33333333       0.50000000 </v>
   <v>       0.09090909       0.33333333       0.50000000 </v>
   <v>       0.18181818       0.33333333       0.50000000 </v>
   <v>       0.27272727       0.33333333       0.50000000 </v>
   <v>       0.36363636       0.33333333       0.50000000 </v>
   <v>       0.45454545       0.33333333       0.50000000 </v>
   <v>      -0.45454545       0.33333333       0.50000000 </v>
   <v>      -0.36363636       0.33333333       0.50000000 </v>
   <v>      -0.27272727       0.33333333       0.50000000 </v>
   <v>      -0.18181818       0.33333333       0.50000000 </v>
   <v>      -0.09090909       0.33333333       0.50000000 </v>
   <v>       0.00000000       0.50000000       0.50000000 </v>
   <v>       0.09090909       0.50000000       0.50000000 </v>
   <v>       0.18181818       0.50000000       0.50000000 </v>
   <v>       0.27272727       0.50000000       0.50000000 </v>
   <v>       0.36363636       0.50000000       0.50000000 </v>
   <v>       0.45454545       0.50000000       0.50000000 </v>
  </varray>
  <varray name="weights" >
   <v>       0.00252525 </v>
   <v>       0.00505051 </v>
   <v>       0.00505051 </v>
   <v>       0.00505051 </v>
   <v>       0.00505051 </v>
   <v>       0.00505051 </v>
   <v>       0.00505051 </v>
   <v>       0.00505051 </v>
   <v>       0.00505051 </v>
   <v>       0.00505051 </v>
   <v>       0.00505051 </v>
   <v>       0.00505051 </v>
   <v>       0.00505051 </v>
   <v>       0.00505051 </v>
   <v>       0.00505051 </v>
   <v>       0.00505051 </v>
   <v>       0.00505051 </v>
   <v>       0.00505051 </v>
   <v>       0.00505051 </v>
   <v>       0.00505051 </v>
   <v>       0.00505051 </v>
   <v>       0.00505051 </v>
   <v>       0.00505051 </v>
   <v>       0.00505051 </v>
   <v>       0.00505051 </v>
   <v>       0.00505051 </v>
   <v>       0.00505051 </v>
   <v>       0.00505051 </v>
   <v>       0.00252525 </v>
   <v>       0.00505051 </v>
   <v>       0.00505051 </v>
   <v>       0.00505051 </v>
   <v>       0.00505051 </v>
   <v>       0.00505051 </v>
   <v>       0.00505051 </v>
   <v>       0.00505051 </v>
   <v>       0.00505051 </v>
   <v>       0.00505051 </v>
   <v>       0.00505051 </v>
   <v>       0.00505051 </v>
   <v>       0.00505051 </v>
   <v>       0.00505051 </v>
   <v>       0.00505051 </v>
   <v>       0.00505051 </v>
   <v>       0.00505051 </v>
   <v>       0.00505051 </v>
   <v>       0.00505051 </v>
   <v>       0.00505051 </v>
   <v>       0.00505051 </v>
   <v>       0.00505051 </v>
   <v>       0.00505051 </v>
   <v>       0.00505051 </v>
   <v>       0.00505051 </v>
   <v>       0.00505051 </v>
   <v>       0.00505051 </v>
   <v>       0.00505051 </v>
   <v>       0.00505051 </v>
   <v>       0.00505051 </v>
   <v>       0.00505051 </v>
   <v>       0.00505051 </v>
   <v>       0.00505051 </v>
   <v>       0.00505051 </v>
   <v>       0.00505051 </v>
   <v>       0.00505051 </v>
   <v>       0.00505051 </v>
   <v>       0.00505051 </v>
   <v>       0.00505051 </v>
   <v>       0.00505051 </v>
   <v>       0.00505051 </v>
   <v>       0.00505051 </v>
   <v>       0.00505051 </v>
   <v>       0.00505051 </v>
   <v>       0.00505051 </v>
   <v>       0.00505051 </v>
   <v>       0.00505051 </v>
   <v>       0.00505051 </v>
   <v>       0.00505051 </v>
   <v>       0.00505051 </v>
   <v>       0.00505051 </v>
   <v>       0.00505051 </v>
   <v>       0.00505051 </v>
   <v>       0.00505051 </v>
   <v>       0.00505051 </v>
   <v>       0.00505051 </v>
   <v>       0.00505051 </v>
   <v>       0.00505051 </v>
   <v>       0.00505051 </v>
   <v>       0.00505051 </v>
   <v>       0.00505051 </v>
   <v>       0.00505051 </v>
   <v>       0.00505051 </v>
   <v>       0.00505051 </v>
   <v>       0.00505051 </v>
   <v>       0.00505051 </v>
   <v>       0.00505051 </v>
   <v>       0.00505051 </v>
   <v>       0.00505051 </v>
   <v>       0.00505051 </v>
   <v>       0.00505051 </v>
   <v>       0.00505051 </v>
   <v>       0.00505051 </v>
   <v>       0.00505051 </v>
   <v>       0.00505051 </v>
   <v>       0.00505051 </v>
   <v>       0.00505051 </v>
   <v>       0.00505051 </v>
   <v>       0.00505051 </v>
   <v>       0.00505051 </v>
   <v>       0.00505051 </v>
   <v>       0.00505051 </v>
   <v>       0.00505051 </v>
   <v>       0.00505051 </v>
   <v>       0.00505051 </v>
   <v>       0.00505051 </v>
   <v>       0.00505051 </v>
   <v>       0.00505051 </v>
   <v>       0.00505051 </v>
   <v>       0.00505051 </v>
   <v>       0.00505051 </v>
   <v>       0.00505051 </v>
   <v>       0.00505051 </v>
   <v>       0.00505051 </v>
   <v>       0.00505051 </v>
   <v>       0.00505051 </v>
   <v>       0.00505051 </v>
   <v>       0.00505051 </v>
   <v>       0.00505051 </v>
   <v>       0.00505051 </v>
   <v>       0.00505051 </v>
   <v>       0.00505051 </v>
   <v>       0.00505051 </v>
   <v>       0.00505051 </v>
   <v>       0.00505051 </v>
   <v>       0.00505051 </v>
   <v>       0.00505051 </v>
   <v>       0.00505051 </v>
   <v>       0.00505051 </v>
   <v>       0.00505051 </v>
   <v>       0.00505051 </v>
   <v>       0.00505051 </v>
   <v>       0.00505051 </v>
   <v>       0.00505051 </v>
   <v>       0.00505051 </v>
   <v>       0.00505051 </v>
   <v>       0.00505051 </v>
   <v>       0.00505051 </v>
   <v>       0.00505051 </v>
   <v>       0.00505051 </v>
   <v>       0.00505051 </v>
   <v>       0.00505051 </v>
   <v>       0.00505051 </v>
   <v>       0.00505051 </v>
   <v>       0.00505051 </v>
   <v>       0.00505051 </v>
   <v>       0.00505051 </v>
   <v>       0.00505051 </v>
   <v>       0.00505051 </v>
   <v>       0.00505051 </v>
   <v>       0.00505051 </v>
   <v>       0.00505051 </v>
   <v>       0.00505051 </v>
   <v>       0.00505051 </v>
   <v>       0.00505051 </v>
   <v>       0.00505051 </v>
   <v>       0.00505051 </v>
   <v>       0.00505051 </v>
   <v>       0.00252525 </v>
   <v>       0.00505051 </v>
   <v>       0.00505051 </v>
   <v>       0.00505051 </v>
   <v>       0.00505051 </v>
   <v>       0.00505051 </v>
   <v>       0.00505051 </v>
   <v>       0.00505051 </v>
   <v>       0.00505051 </v>
   <v>       0.00505051 </v>
   <v>       0.00505051 </v>
   <v>       0.00505051 </v>
   <v>       0.00505051 </v>
   <v>       0.00505051 </v>
   <v>       0.00505051 </v>
   <v>       0.00505051 </v>
   <v>       0.00505051 </v>
   <v>       0.00505051 </v>
   <v>       0.00505051 </v>
   <v>       0.00505051 </v>
   <v>       0.00505051 </v>
   <v>       0.00505051 </v>
   <v>       0.00505051 </v>
   <v>       0.00505051 </v>
   <v>       0.00505051 </v>
   <v>       0.00505051 </v>
   <v>       0.00505051 </v>
   <v>       0.00505051 </v>
   <v>       0.00252525 </v>
   <v>       0.00505051 </v>
   <v>       0.00505051 </v>
   <v>       0.00505051 </v>
   <v>       0.00505051 </v>
   <v>       0.00505051 </v>
  </varray>
 </kpoints>
 <parameters>
  <separator name="general" >
   <i type="string" name="SYSTEM">unknown system</i>
   <i type="logical" name="LCOMPAT"> F  </i>
  </separator>
  <separator name="electronic" >
   <i type="string" name="PREC">accura</i>
   <i name="ENMAX">    520.00000000</i>
   <i name="ENAUG">    605.39200000</i>
   <i name="EDIFF">      0.00010000</i>
   <i type="int" name="IALGO">    68</i>
   <i type="int" name="IWAVPR">    11</i>
   <i type="int" name="NBANDS">    56</i>
   <i name="NELECT">     92.00000000</i>
   <i type="int" name="TURBO">     0</i>
   <i type="int" name="IRESTART">     0</i>
   <i type="int" name="NREBOOT">     0</i>
   <i type="int" name="NMIN">     0</i>
   <i name="EREF">      0.00000000</i>
   <separator name="electronic smearing" >
    <i type="int" name="ISMEAR">     0</i>
    <i name="SIGMA">      0.01000000</i>
    <i name="KSPACING">      0.50000000</i>
    <i type="logical" name="KGAMMA"> T  </i>
   </separator>
   <separator name="electronic projectors" >
    <i type="logical" name="LREAL"> T  </i>
    <v name="ROPT">     -0.00025000     -0.00025000</v>
    <i type="int" name="LMAXPAW">  -100</i>
    <i type="int" name="LMAXMIX">     4</i>
    <i type="logical" name="NLSPLINE"> F  </i>
   </separator>
   <separator name="electronic startup" >
    <i type="int" name="ISTART">     0</i>
    <i type="int" name="ICHARG">     2</i>
    <i type="int" name="INIWAV">     1</i>
   </separator>
   <separator name="electronic spin" >
    <i type="int" name="ISPIN">     2</i>
    <i type="logical" name="LNONCOLLINEAR"> F  </i>
    <v name="MAGMOM">    -10.00000000    -10.00000000     10.00000000     10.00000000      0.60000000      0.60000000      0.60000000      0.60000000</v>
    <i name="NUPDOWN">     -1.00000000</i>
    <i type="logical" name="LSORBIT"> F  </i>
    <v name="SAXIS">      0.00000000      0.00000000      1.00000000</v>
    <i type="logical" name="LSPIRAL"> F  </i>
    <v name="QSPIRAL">      0.00000000      0.00000000      0.00000000</v>
    <i type="logical" name="LZEROZ"> F  </i>
   </separator>
   <separator name="electronic exchange-correlation" >
    <i type="logical" name="LASPH"> T  </i>
    <i type="logical" name="LMETAGGA"> F  </i>
   </separator>
   <separator name="electronic convergence" >
    <i type="int" name="NELM">   100</i>
    <i type="int" name="NELMDL">    -5</i>
    <i type="int" name="NELMIN">     2</i>
    <i name="ENINI">    520.00000000</i>
    <separator name="electronic convergence detail" >
     <i type="logical" name="LDIAG"> T  </i>
     <i type="logical" name="LSUBROT"> F  </i>
     <i name="WEIMIN">      0.00100000</i>
     <i name="EBREAK">      0.00000045</i>
     <i name="DEPER">      0.30000000</i>
     <i type="int" name="NRMM">     4</i>
     <i name="TIME">      0.40000000</i>
    </separator>
   </separator>
   <separator name="electronic mixer" >
    <i name="AMIX">      0.40000000</i>
    <i name="BMIX">      1.00000000</i>
    <i name="AMIN">      0.10000000</i>
    <i name="AMIX_MAG">      1.60000000</i>
    <i name="BMIX_MAG">      1.00000000</i>
    <separator name="electronic mixer details" >
     <i type="int" name="IMIX">     4</i>
     <i type="logical" name="MIXFIRST"> F  </i>
     <i type="int" name="MAXMIX">   -45</i>
     <i name="WC">    100.00000000</i>
     <i type="int" name="INIMIX">     1</i>
     <i type="int" name="MIXPRE">     1</i>
     <i type="int" name="MREMOVE">     5</i>
    </separator>
   </separator>
   <separator name="electronic dipolcorrection" >
    <i type="logical" name="LDIPOL"> F  </i>
    <i type="logical" name="LMONO"> F  </i>
    <i type="int" name="IDIPOL">     0</i>
    <i name="EPSILON">      1.00000000</i>
    <v name="DIPOL">   -100.00000000   -100.00000000   -100.00000000</v>
    <i name="EFIELD">      0.00000000</i>
   </separator>
  </separator>
  <separator name="grids" >
   <i type="int" name="NGX">    28</i>
   <i type="int" name="NGY">    48</i>
   <i type="int" name="NGZ">    48</i>
   <i type="int" name="NGXF">    56</i>
   <i type="int" name="NGYF">    96</i>
   <i type="int" name="NGZF">    96</i>
   <i type="logical" name="ADDGRID"> F  </i>
  </separator>
  <separator name="ionic" >
   <i type="int" name="NSW">    99</i>
   <i type="int" name="IBRION">     2</i>
   <i type="int" name="MDALGO">     0</i>
   <i type="int" name="ISIF">     4</i>
   <i name="PSTRESS">      0.00000000</i>
   <i name="EDIFFG">     -0.01000000</i>
   <i type="int" name="NFREE">     1</i>
   <i name="POTIM">      0.30000000</i>
   <i name="SMASS">     -3.00000000</i>
   <i name="SCALEE">      1.00000000</i>
  </separator>
  <separator name="ionic md" >
   <i name="TEBEG">      0.00010000</i>
   <i name="TEEND">      0.00010000</i>
   <i type="int" name="NBLOCK">     1</i>
   <i type="int" name="KBLOCK">    99</i>
   <i type="int" name="NPACO">   256</i>
   <i name="APACO">     16.00000000</i>
  </separator>
  <separator name="symmetry" >
   <i type="int" name="ISYM">     2</i>
   <i name="SYMPREC">      0.00000001</i>
  </separator>
  <separator name="dos" >
   <i type="int" name="LORBIT">    11</i>
   <v name="RWIGS">     -1.00000000     -1.00000000</v>
   <i type="int" name="NEDOS">   301</i>
   <i name="EMIN">     10.00000000</i>
   <i name="EMAX">    -10.00000000</i>
   <i name="EFERMI">      0.00000000</i>
  </separator>
  <separator name="writing" >
   <i type="int" name="NWRITE">     2</i>
   <i type="logical" name="LWAVE"> F  </i>
   <i type="logical" name="LDOWNSAMPLE"> F  </i>
   <i type="logical" name="LCHARG"> F  </i>
   <i type="logical" name="LPARD"> F  </i>
   <i type="logical" name="LVTOT"> F  </i>
   <i type="logical" name="LVHAR"> F  </i>
   <i type="logical" name="LELF"> F  </i>
   <i type="logical" name="LOPTICS"> F  </i>
   <v name="STM">      0.00000000      0.00000000      0.00000000      0.00000000      0.00000000      0.00000000      0.00000000</v>
  </separator>
  <separator name="performance" >
   <i type="int" name="NPAR">     2</i>
   <i type="int" name="NSIM">     4</i>
   <i type="int" name="NBLK">    -1</i>
   <i type="logical" name="LPLANE"> T  </i>
   <i type="logical" name="LSCALAPACK"> T  </i>
   <i type="logical" name="LSCAAWARE"> F  </i>
   <i type="logical" name="LSCALU"> F  </i>
   <i type="logical" name="LASYNC"> F  </i>
   <i type="logical" name="LORBITALREAL"> F  </i>
  </separator>
  <separator name="miscellaneous" >
   <i type="int" name="IDIOT">     3</i>
   <i type="int" name="ISPECIAL">     0</i>
   <i type="logical" name="LMUSIC"> F  </i>
   <v name="POMASS">    151.96500000     16.00000000</v>
   <v name="DARWINR">      0.00000000      0.00000000</v>
   <v name="DARWINV">      1.00000000      1.00000000</v>
   <i type="logical" name="LCORR"> T  </i>
  </separator>
  <i type="logical" name="GGA_COMPAT"> T  </i>
  <i type="logical" name="LBERRY"> F  </i>
  <i type="int" name="ICORELEVEL">     0</i>
  <i type="logical" name="LDAU"> F  </i>
  <i type="int" name="I_CONSTRAINED_M">     0</i>
  <separator name="electronic exchange-correlation" >
   <i type="string" name="GGA">--</i>
   <i type="int" name="VOSKOWN">     0</i>
   <i type="logical" name="LHFCALC"> F  </i>
   <i type="string" name="PRECFOCK"></i>
   <i type="logical" name="LSYMGRAD"> F  </i>
   <i type="logical" name="LHFONE"> F  </i>
   <i type="logical" name="LRHFCALC"> F  </i>
   <i type="logical" name="LTHOMAS"> F  </i>
   <i type="logical" name="LMODELHF"> F  </i>
   <i name="ENCUT4O">     -1.00000000</i>
   <i type="int" name="EXXOEP">     0</i>
   <i type="int" name="FOURORBIT">     0</i>
   <i name="AEXX">      0.00000000</i>
   <i name="HFALPHA">      0.00000000</i>
   <i name="MCALPHA">      0.00000000</i>
   <i name="ALDAX">      1.00000000</i>
   <i name="AGGAX">      1.00000000</i>
   <i name="ALDAC">      1.00000000</i>
   <i name="AGGAC">      1.00000000</i>
   <i type="int" name="NKREDX">     1</i>
   <i type="int" name="NKREDY">     1</i>
   <i type="int" name="NKREDZ">     1</i>
   <i type="logical" name="SHIFTRED"> F  </i>
   <i type="logical" name="ODDONLY"> F  </i>
   <i type="logical" name="EVENONLY"> F  </i>
   <i type="int" name="LMAXFOCK">     0</i>
   <i type="int" name="NMAXFOCKAE">     0</i>
   <i type="logical" name="LFOCKAEDFT"> F  </i>
   <i name="HFSCREEN">      0.00000000</i>
   <i name="HFSCREENC">      0.00000000</i>
   <i type="int" name="NBANDSGWLOW">     0</i>
  </separator>
  <separator name="vdW DFT" >
   <i type="logical" name="LUSE_VDW"> F  </i>
   <i name="Zab_VDW">     -0.84910000</i>
   <i name="PARAM1">      0.12340000</i>
   <i name="PARAM2">      1.00000000</i>
   <i name="PARAM3">      0.00000000</i>
  </separator>
  <separator name="model GW" >
   <i type="int" name="MODEL_GW">     0</i>
   <i name="MODEL_EPS0">      9.83639940</i>
   <i name="MODEL_ALPHA">      1.00000000</i>
  </separator>
  <separator name="linear response parameters" >
   <i type="logical" name="LEPSILON"> F  </i>
   <i type="logical" name="LRPA"> F  </i>
   <i type="logical" name="LNABLA"> F  </i>
   <i type="logical" name="LVEL"> F  </i>
   <i type="int" name="KINTER">     0</i>
   <i name="CSHIFT">      0.10000000</i>
   <i name="OMEGAMAX">     -1.00000000</i>
   <i name="DEG_THRESHOLD">      0.00200000</i>
   <i name="RTIME">     -0.10000000</i>
   <i name="WPLASMAI">      0.00000000</i>
   <v name="DFIELD">      0.00000000      0.00000000      0.00000000</v>
   <v name="WPLASMA">      0.00000000      0.00000000      0.00000000      0.00000000      0.00000000      0.00000000      0.00000000      0.00000000      0.00000000</v>
  </separator>
  <separator name="orbital magnetization" >
   <i type="logical" name="NUCIND"> F  </i>
   <v name="MAGPOS">      0.00000000      0.00000000      0.00000000</v>
   <i type="logical" name="LNICSALL"> T  </i>
   <i type="logical" name="ORBITALMAG"> F  </i>
   <i type="logical" name="LMAGBLOCH"> F  </i>
   <i type="logical" name="LCHIMAG"> F  </i>
   <i type="logical" name="LGAUGE"> T  </i>
   <i type="int" name="MAGATOM">     0</i>
   <v name="MAGDIPOL">      0.00000000      0.00000000      0.00000000</v>
   <v name="AVECCONST">      0.00000000      0.00000000      0.00000000</v>
  </separator>
  <separator name="response functions" >
   <i type="logical" name="LADDER"> F  </i>
   <i type="logical" name="LRPAFORCE"> F  </i>
   <i type="logical" name="LFXC"> F  </i>
   <i type="logical" name="LHARTREE"> T  </i>
   <i type="int" name="IBSE">     0</i>
   <v type="int" name="KPOINT">    -1     0     0     0</v>
   <i type="logical" name="LTCTE"> F  </i>
   <i type="logical" name="LTETE"> F  </i>
   <i type="logical" name="LTRIPLET"> F  </i>
   <i type="logical" name="LFXCEPS"> F  </i>
   <i type="logical" name="LFXHEG"> F  </i>
   <i type="int" name="NATURALO">     2</i>
   <i type="logical" name="L2ORDER"> F  </i>
   <i type="logical" name="LMP2LT"> F  </i>
   <i type="logical" name="LUSEW"> F  </i>
   <i name="ENCUTGW">     -2.00000000</i>
   <i name="ENCUTGWSOFT">     -2.00000000</i>
   <i name="ENCUTLF">     -1.00000000</i>
   <i type="int" name="LMAXMP2">    -1</i>
   <i name="SCISSOR">      0.00000000</i>
   <i type="int" name="NOMEGA">     0</i>
   <i type="int" name="NOMEGAR">     0</i>
   <i type="int" name="NBANDSGW">    -1</i>
   <i type="int" name="NBANDSO">    -1</i>
   <i type="int" name="NBANDSV">    -1</i>
   <i type="int" name="NELM">   100</i>
   <i type="int" name="NELMHF">     1</i>
   <i type="int" name="DIM">     3</i>
   <i type="int" name="ANTIRES">     0</i>
   <i name="OMEGAMAX">    -30.00000000</i>
   <i name="OMEGAMIN">    -30.00000000</i>
   <i name="OMEGATL">   -200.00000000</i>
   <i type="int" name="OMEGAGRID">   140</i>
   <i name="CSHIFT">     -0.10000000</i>
   <i type="logical" name="SELFENERGY"> F  </i>
   <i type="logical" name="LSPECTRAL"> F  </i>
   <i type="logical" name="LSPECTRALGW"> F  </i>
   <i type="logical" name="LSINGLES"> F  </i>
   <i type="logical" name="LFERMIGW"> F  </i>
   <i type="logical" name="ODDONLYGW"> F  </i>
   <i type="logical" name="EVENONLYGW"> F  </i>
   <i type="int" name="NKREDLFX">     1</i>
   <i type="int" name="NKREDLFY">     1</i>
   <i type="int" name="NKREDLFZ">     1</i>
   <i type="int" name="MAXMEM">  2800</i>
   <i type="int" name="TELESCOPE">     0</i>
   <i type="int" name="TAUPAR">     1</i>
   <i type="int" name="OMEGAPAR">    -1</i>
   <i name="LAMBDA">      1.00000000</i>
  </separator>
  <separator name="External order field" >
   <i name="OFIELD_KAPPA">      0.00000000</i>
   <v name="OFIELD_K">      0.00000000      0.00000000      0.00000000</v>
   <i name="OFIELD_Q6_NEAR">      0.00000000</i>
   <i name="OFIELD_Q6_FAR">      0.00000000</i>
   <i name="OFIELD_A">      0.00000000</i>
  </separator>
 </parameters>
 <atominfo>
  <atoms>       8 </atoms>
  <types>       2 </types>
  <array name="atoms" >
   <dimension dim="1">ion</dimension>
   <field type="string">element</field>
   <field type="int">atomtype</field>
   <set>
    <rc><c>Eu</c><c>   1</c></rc>
    <rc><c>Eu</c><c>   1</c></rc>
    <rc><c>Eu</c><c>   1</c></rc>
    <rc><c>Eu</c><c>   1</c></rc>
    <rc><c>O </c><c>   2</c></rc>
    <rc><c>O </c><c>   2</c></rc>
    <rc><c>O </c><c>   2</c></rc>
    <rc><c>O </c><c>   2</c></rc>
   </set>
  </array>
  <array name="atomtypes" >
   <dimension dim="1">type</dimension>
   <field type="int">atomspertype</field>
   <field type="string">element</field>
   <field>mass</field>
   <field>valence</field>
   <field type="string">pseudopotential</field>
   <set>
    <rc><c>   4</c><c>Eu</c><c>    151.96500000</c><c>     17.00000000</c><c>  PAW_PBE Eu 23Dec2003                  </c></rc>
    <rc><c>   4</c><c>O </c><c>     16.00000000</c><c>      6.00000000</c><c>  PAW_PBE O 08Apr2002                   </c></rc>
   </set>
  </array>
 </atominfo>
 <structure name="initialpos" >
  <crystal>
   <varray name="basis" >
    <v>       3.59264600       0.00000000       0.00000000 </v>
    <v>       0.00012300       6.22255800       0.00000000 </v>
    <v>      -1.79624400      -1.03704600       5.86666800 </v>
   </varray>
   <i name="volume">    131.15199204 </i>
   <varray name="rec_basis" >
    <v>       0.27834638      -0.00000550       0.08522253 </v>
    <v>       0.00000000       0.16070561       0.02840780 </v>
    <v>       0.00000000       0.00000000       0.17045451 </v>
   </varray>
  </crystal>
  <varray name="positions" >
   <v>       0.25000000       0.75000000       0.50000000 </v>
   <v>       0.50000000       0.50000000       0.00000000 </v>
   <v>       0.00000000       0.00000000       0.00000000 </v>
   <v>       0.75000000       0.25000000       0.50000000 </v>
   <v>       0.37500000       0.12500000       0.75000000 </v>
   <v>       0.12500000       0.37500000       0.25000000 </v>
   <v>       0.87500000       0.62500000       0.75000000 </v>
   <v>       0.62500000       0.87500000       0.25000000 </v>
  </varray>
 </structure>
 <calculation>
  <scstep>
   <time name="dav">   44.56   44.70</time>
   <time name="total">   46.00   46.14</time>
   <energy>
    <i name="alphaZ">    906.21123931 </i>
    <i name="ewald">  -9706.50108216 </i>
    <i name="hartreedc">  -2789.90814020 </i>
    <i name="XCdc">    466.65084397 </i>
    <i name="pawpsdc">  10232.67819445 </i>
    <i name="pawaedc"> -10815.10853932 </i>
    <i name="eentropy">     -0.00004939 </i>
    <i name="bandstr">    777.25746024 </i>
    <i name="atom">  12208.65988691 </i>
    <i name="e_fr_energy">   1279.93981381 </i>
    <i name="e_wo_entrp">   1279.93986320 </i>
    <i name="e_0_energy">   1279.93983851 </i>
   </energy>
  </scstep>
  <scstep>
   <time name="dav">   49.69   49.84</time>
   <time name="total">   49.71   49.87</time>
   <energy>
    <i name="e_fr_energy">    337.54263483 </i>
    <i name="e_wo_entrp">    337.54299077 </i>
    <i name="e_0_energy">    337.54281280 </i>
   </energy>
  </scstep>
  <scstep>
   <time name="dav">   55.52   55.68</time>
   <time name="total">   55.54   55.69</time>
   <energy>
    <i name="e_fr_energy">     -9.63305324 </i>
    <i name="e_wo_entrp">     -9.63269215 </i>
    <i name="e_0_energy">     -9.63287269 </i>
   </energy>
  </scstep>
  <scstep>
   <time name="dav">   66.08   66.27</time>
   <time name="total">   66.10   66.29</time>
   <energy>
    <i name="e_fr_energy">    -75.69889158 </i>
    <i name="e_wo_entrp">    -75.69791357 </i>
    <i name="e_0_energy">    -75.69840257 </i>
   </energy>
  </scstep>
  <scstep>
   <time name="dav">   66.69   66.91</time>
   <time name="total">   68.66   68.88</time>
   <energy>
    <i name="e_fr_energy">    -81.76486622 </i>
    <i name="e_wo_entrp">    -81.76206350 </i>
    <i name="e_0_energy">    -81.76346486 </i>
   </energy>
  </scstep>
  <scstep>
   <time name="diag">    5.34    5.36</time>
   <time name="diis">   39.41   39.50</time>
   <time name="orth">    0.57    0.57</time>
   <time name="total">   48.59   48.71</time>
   <energy>
    <i name="e_fr_energy">   -101.00210190 </i>
    <i name="e_wo_entrp">   -101.00205830 </i>
    <i name="e_0_energy">   -101.00208010 </i>
   </energy>
  </scstep>
  <scstep>
   <time name="diag">    5.32    5.33</time>
   <time name="diis">   31.78   31.85</time>
   <time name="orth">    0.57    0.57</time>
   <time name="total">   40.97   41.07</time>
   <energy>
    <i name="e_fr_energy">    -84.08362704 </i>
    <i name="e_wo_entrp">    -84.08362704 </i>
    <i name="e_0_energy">    -84.08362704 </i>
   </energy>
  </scstep>
  <scstep>
   <time name="diag">    5.30    5.31</time>
   <time name="diis">   35.38   35.51</time>
   <time name="orth">    0.60    0.61</time>
   <time name="total">   44.57   44.73</time>
   <energy>
    <i name="e_fr_energy">    -83.00659332 </i>
    <i name="e_wo_entrp">    -83.00659332 </i>
    <i name="e_0_energy">    -83.00659332 </i>
   </energy>
  </scstep>
  <scstep>
   <time name="diag">    5.39    5.42</time>
   <time name="diis">   36.63   36.72</time>
   <time name="orth">    0.59    0.59</time>
   <time name="total">   46.04   46.17</time>
   <energy>
    <i name="e_fr_energy">    -83.20813392 </i>
    <i name="e_wo_entrp">    -83.20761298 </i>
    <i name="e_0_energy">    -83.20787345 </i>
   </energy>
  </scstep>
  <scstep>
   <time name="diag">    5.26    5.27</time>
   <time name="diis">   41.36   41.45</time>
   <time name="orth">    0.57    0.57</time>
   <time name="total">   50.56   50.68</time>
   <energy>
    <i name="e_fr_energy">    -83.33236213 </i>
    <i name="e_wo_entrp">    -83.33154568 </i>
    <i name="e_0_energy">    -83.33195390 </i>
   </energy>
  </scstep>
  <scstep>
   <time name="diag">    5.25    5.26</time>
   <time name="diis">   43.05   43.15</time>
   <time name="orth">    0.59    0.59</time>
   <time name="total">   52.16   52.29</time>
   <energy>
    <i name="e_fr_energy">    -83.19734266 </i>
    <i name="e_wo_entrp">    -83.19711811 </i>
    <i name="e_0_energy">    -83.19723039 </i>
   </energy>
  </scstep>
  <scstep>
   <time name="diag">    5.23    5.24</time>
   <time name="diis">   45.82   46.00</time>
   <time name="orth">    0.59    0.59</time>
   <time name="total">   55.05   55.25</time>
   <energy>
    <i name="e_fr_energy">    -83.22183162 </i>
    <i name="e_wo_entrp">    -83.22157794 </i>
    <i name="e_0_energy">    -83.22170478 </i>
   </energy>
  </scstep>
  <scstep>
   <time name="diag">    5.35    5.37</time>
   <time name="diis">   46.92   47.03</time>
   <time name="orth">    0.58    0.58</time>
   <time name="total">   56.21   56.34</time>
   <energy>
    <i name="e_fr_energy">    -83.22135309 </i>
    <i name="e_wo_entrp">    -83.22098176 </i>
    <i name="e_0_energy">    -83.22116743 </i>
   </energy>
  </scstep>
  <scstep>
   <time name="diag">    5.42    5.44</time>
   <time name="diis">   49.13   49.25</time>
   <time name="orth">    0.57    0.57</time>
   <time name="total">   58.51   58.65</time>
   <energy>
    <i name="e_fr_energy">    -83.23472680 </i>
    <i name="e_wo_entrp">    -83.23447113 </i>
    <i name="e_0_energy">    -83.23459897 </i>
   </energy>
  </scstep>
  <scstep>
   <time name="diag">    5.27    5.28</time>
   <time name="diis">   44.29   44.40</time>
   <time name="orth">    0.61    0.61</time>
   <time name="total">   53.55   53.68</time>
   <energy>
    <i name="e_fr_energy">    -83.23565150 </i>
    <i name="e_wo_entrp">    -83.23533348 </i>
    <i name="e_0_energy">    -83.23549249 </i>
   </energy>
  </scstep>
  <scstep>
   <time name="diag">    5.21    5.22</time>
   <time name="diis">   46.67   46.86</time>
   <time name="orth">    0.61    0.61</time>
   <time name="total">   55.95   56.17</time>
   <energy>
    <i name="e_fr_energy">    -83.23777538 </i>
    <i name="e_wo_entrp">    -83.23735557 </i>
    <i name="e_0_energy">    -83.23756548 </i>
   </energy>
  </scstep>
  <scstep>
   <time name="diag">    5.47    5.49</time>
   <time name="diis">   45.41   45.52</time>
   <time name="orth">    0.61    0.61</time>
   <time name="total">   54.95   55.08</time>
   <energy>
    <i name="e_fr_energy">    -83.24023438 </i>
    <i name="e_wo_entrp">    -83.23982224 </i>
    <i name="e_0_energy">    -83.24002831 </i>
   </energy>
  </scstep>
  <scstep>
   <time name="diag">    5.41    5.42</time>
   <time name="diis">   40.49   40.58</time>
   <time name="orth">    0.60    0.60</time>
   <time name="total">   49.96   50.08</time>
   <energy>
    <i name="e_fr_energy">    -83.24204992 </i>
    <i name="e_wo_entrp">    -83.24162756 </i>
    <i name="e_0_energy">    -83.24183874 </i>
   </energy>
  </scstep>
  <scstep>
   <time name="diag">    5.43    5.44</time>
   <time name="diis">   34.18   34.26</time>
   <time name="orth">    0.61    0.61</time>
   <time name="total">   43.69   43.79</time>
   <energy>
    <i name="e_fr_energy">    -83.24308633 </i>
    <i name="e_wo_entrp">    -83.24265720 </i>
    <i name="e_0_energy">    -83.24287177 </i>
   </energy>
  </scstep>
  <scstep>
   <time name="diag">    5.51    5.55</time>
   <time name="diis">   32.50   32.62</time>
   <time name="orth">    0.60    0.61</time>
   <time name="total">   42.06   42.24</time>
   <energy>
    <i name="e_fr_energy">    -83.24405608 </i>
    <i name="e_wo_entrp">    -83.24362254 </i>
    <i name="e_0_energy">    -83.24383931 </i>
   </energy>
  </scstep>
  <scstep>
   <time name="diag">    5.40    5.42</time>
   <time name="diis">   31.55   31.62</time>
   <time name="orth">    0.60    0.61</time>
   <time name="total">   40.93   41.03</time>
   <energy>
    <i name="e_fr_energy">    -83.24484708 </i>
    <i name="e_wo_entrp">    -83.24441269 </i>
    <i name="e_0_energy">    -83.24462988 </i>
   </energy>
  </scstep>
  <scstep>
   <time name="diag">    5.43    5.44</time>
   <time name="diis">   29.23   29.30</time>
   <time name="orth">    0.62    0.62</time>
   <time name="total">   38.69   38.78</time>
   <energy>
    <i name="e_fr_energy">    -83.24547293 </i>
    <i name="e_wo_entrp">    -83.24503877 </i>
    <i name="e_0_energy">    -83.24525585 </i>
   </energy>
  </scstep>
  <scstep>
   <time name="diag">    5.36    5.38</time>
   <time name="diis">   29.15   29.24</time>
   <time name="orth">    0.60    0.60</time>
   <time name="total">   38.56   38.67</time>
   <energy>
    <i name="e_fr_energy">    -83.24595880 </i>
    <i name="e_wo_entrp">    -83.24552309 </i>
    <i name="e_0_energy">    -83.24574095 </i>
   </energy>
  </scstep>
  <scstep>
   <time name="diag">    5.38    5.39</time>
   <time name="diis">   28.59   28.66</time>
   <time name="orth">    0.60    0.60</time>
   <time name="total">   38.02   38.12</time>
   <energy>
    <i name="e_fr_energy">    -83.24635335 </i>
    <i name="e_wo_entrp">    -83.24591767 </i>
    <i name="e_0_energy">    -83.24613551 </i>
   </energy>
  </scstep>
  <scstep>
   <time name="diag">    5.48    5.52</time>
   <time name="diis">   28.31   28.42</time>
   <time name="orth">    0.60    0.60</time>
   <time name="total">   37.87   38.03</time>
   <energy>
    <i name="e_fr_energy">    -83.24666684 </i>
    <i name="e_wo_entrp">    -83.24623159 </i>
    <i name="e_0_energy">    -83.24644922 </i>
   </energy>
  </scstep>
  <scstep>
   <time name="diag">    5.39    5.40</time>
   <time name="diis">   27.57   27.63</time>
   <time name="orth">    0.60    0.61</time>
   <time name="total">   36.98   37.07</time>
   <energy>
    <i name="e_fr_energy">    -83.24691603 </i>
    <i name="e_wo_entrp">    -83.24648092 </i>
    <i name="e_0_energy">    -83.24669848 </i>
   </energy>
  </scstep>
  <scstep>
   <time name="diag">    5.42    5.43</time>
   <time name="diis">   26.53   26.60</time>
   <time name="orth">    0.59    0.59</time>
   <time name="total">   35.97   36.06</time>
   <energy>
    <i name="e_fr_energy">    -83.24711757 </i>
    <i name="e_wo_entrp">    -83.24668266 </i>
    <i name="e_0_energy">    -83.24690011 </i>
   </energy>
  </scstep>
  <scstep>
   <time name="diag">    5.43    5.44</time>
   <time name="diis">   26.95   27.01</time>
   <time name="orth">    0.61    0.62</time>
   <time name="total">   36.48   36.56</time>
   <energy>
    <i name="e_fr_energy">    -83.24728193 </i>
    <i name="e_wo_entrp">    -83.24684732 </i>
    <i name="e_0_energy">    -83.24706463 </i>
   </energy>
  </scstep>
  <scstep>
   <time name="diag">    5.43    5.45</time>
   <time name="diis">   26.00   26.06</time>
   <time name="orth">    0.60    0.60</time>
   <time name="total">   35.46   35.55</time>
   <energy>
    <i name="e_fr_energy">    -83.24741214 </i>
    <i name="e_wo_entrp">    -83.24697740 </i>
    <i name="e_0_energy">    -83.24719477 </i>
   </energy>
  </scstep>
  <scstep>
   <time name="diag">    5.41    5.43</time>
   <time name="diis">   26.29   26.46</time>
   <time name="orth">    0.60    0.60</time>
   <time name="total">   35.73   35.93</time>
   <energy>
    <i name="e_fr_energy">    -83.24752065 </i>
    <i name="e_wo_entrp">    -83.24708571 </i>
    <i name="e_0_energy">    -83.24730318 </i>
   </energy>
  </scstep>
  <scstep>
   <time name="diag">    5.35    5.36</time>
   <time name="diis">   25.14   25.20</time>
   <time name="orth">    0.56    0.56</time>
   <time name="total">   32.60   32.68</time>
   <energy>
    <i name="alphaZ">    906.21123931 </i>
    <i name="ewald">  -9706.50108216 </i>
    <i name="hartreedc">  -2756.05858613 </i>
    <i name="XCdc">    464.48869562 </i>
    <i name="pawpsdc">  10560.73254987 </i>
    <i name="pawaedc"> -11176.68228030 </i>
    <i name="eentropy">     -0.00043499 </i>
    <i name="bandstr">   -584.09759635 </i>
    <i name="atom">  12208.65988691 </i>
    <i name="e_fr_energy">    -83.24760822 </i>
    <i name="e_wo_entrp">    -83.24717323 </i>
    <i name="e_0_energy">    -83.24739073 </i>
   </energy>
  </scstep>
  <structure>
   <crystal>
    <varray name="basis" >
     <v>       3.59264600       0.00000000       0.00000000 </v>
     <v>       0.00012300       6.22255800       0.00000000 </v>
     <v>      -1.79624400      -1.03704600       5.86666800 </v>
    </varray>
    <i name="volume">    131.15199204 </i>
    <varray name="rec_basis" >
     <v>       0.27834638      -0.00000550       0.08522253 </v>
     <v>       0.00000000       0.16070561       0.02840780 </v>
     <v>       0.00000000       0.00000000       0.17045451 </v>
    </varray>
   </crystal>
   <varray name="positions" >
    <v>       0.25000000       0.75000000       0.50000000 </v>
    <v>       0.50000000       0.50000000       0.00000000 </v>
    <v>       0.00000000       0.00000000       0.00000000 </v>
    <v>       0.75000000       0.25000000       0.50000000 </v>
    <v>       0.37500000       0.12500000       0.75000000 </v>
    <v>       0.12500000       0.37500000       0.25000000 </v>
    <v>       0.87500000       0.62500000       0.75000000 </v>
    <v>       0.62500000       0.87500000       0.25000000 </v>
   </varray>
  </structure>
  <varray name="forces" >
   <v>       0.00031903      -0.03447440      -0.01037446 </v>
   <v>      -0.00031903       0.03447440       0.01037446 </v>
   <v>       0.00007423       0.03455526       0.01051550 </v>
   <v>      -0.00007423      -0.03455526      -0.01051550 </v>
   <v>       0.00000000       0.00000000       0.00000000 </v>
   <v>      -0.00000666      -0.00013711       0.00001604 </v>
   <v>       0.00000000       0.00000000       0.00000000 </v>
   <v>       0.00000666       0.00013711      -0.00001604 </v>
  </varray>
  <varray name="stress" >
   <v>      -7.78226765       0.00447991      -0.04560688 </v>
   <v>       0.00448005      -0.38363326       0.36758009 </v>
   <v>      -0.04560659       0.36757970      -4.98573323 </v>
  </varray>
  <energy>
   <i name="e_fr_energy">    -83.24760822 </i>
   <i name="e_wo_entrp">    -83.24739073 </i>
   <i name="e_0_energy">     -0.00043499 </i>
  </energy>
  <time name="totalsc"> 1505.03 1509.35</time>
 </calculation>
 <calculation>
  <scstep>
   <time name="dav">   52.11   52.24</time>
   <time name="total">   55.45   55.59</time>
   <energy>
    <i name="alphaZ">    906.21123931 </i>
    <i name="ewald">  -9706.49688135 </i>
    <i name="hartreedc">  -2756.07288108 </i>
    <i name="XCdc">    464.48909910 </i>
    <i name="pawpsdc">  10560.97471212 </i>
    <i name="pawaedc"> -11176.90654909 </i>
    <i name="eentropy">     -0.00040980 </i>
    <i name="bandstr">   -584.10488754 </i>
    <i name="atom">  12208.65988691 </i>
    <i name="e_fr_energy">    -83.24667141 </i>
    <i name="e_wo_entrp">    -83.24626161 </i>
    <i name="e_0_energy">    -83.24646651 </i>
   </energy>
  </scstep>
  <scstep>
   <time name="diag">    5.40    5.41</time>
   <time name="diis">   42.46   42.64</time>
   <time name="orth">    0.58    0.58</time>
   <time name="total">   51.79   52.00</time>
   <energy>
    <i name="e_fr_energy">    -83.24889094 </i>
    <i name="e_wo_entrp">    -83.24847224 </i>
    <i name="e_0_energy">    -83.24868159 </i>
   </energy>
  </scstep>
  <scstep>
   <time name="diag">    5.39    5.40</time>
   <time name="diis">   42.59   42.69</time>
   <time name="orth">    0.60    0.61</time>
   <time name="total">   52.13   52.26</time>
   <energy>
    <i name="e_fr_energy">    -83.24899884 </i>
    <i name="e_wo_entrp">    -83.24858110 </i>
    <i name="e_0_energy">    -83.24878997 </i>
   </energy>
  </scstep>
  <scstep>
   <time name="diag">    5.43    5.44</time>
   <time name="diis">   33.11   33.19</time>
   <time name="orth">    0.59    0.59</time>
   <time name="total">   42.57   42.67</time>
   <energy>
    <i name="e_fr_energy">    -83.24934441 </i>
    <i name="e_wo_entrp">    -83.24899777 </i>
    <i name="e_0_energy">    -83.24917109 </i>
   </energy>
  </scstep>
  <scstep>
   <time name="diag">    5.34    5.36</time>
   <time name="diis">   29.22   29.29</time>
   <time name="orth">    0.59    0.59</time>
   <time name="total">   38.61   38.70</time>
   <energy>
    <i name="e_fr_energy">    -83.24864831 </i>
    <i name="e_wo_entrp">    -83.24822800 </i>
    <i name="e_0_energy">    -83.24843815 </i>
   </energy>
  </scstep>
  <scstep>
   <time name="diag">    5.34    5.35</time>
   <time name="diis">   26.55   26.61</time>
   <time name="orth">    0.60    0.60</time>
   <time name="total">   33.97   34.06</time>
   <energy>
    <i name="alphaZ">    906.21123931 </i>
    <i name="ewald">  -9706.49688135 </i>
    <i name="hartreedc">  -2756.23144626 </i>
    <i name="XCdc">    464.49684574 </i>
    <i name="pawpsdc">  10563.40009144 </i>
    <i name="pawaedc"> -11179.17001238 </i>
    <i name="eentropy">     -0.00042619 </i>
    <i name="bandstr">   -584.11799654 </i>
    <i name="atom">  12208.65988691 </i>
    <i name="e_fr_energy">    -83.24869933 </i>
    <i name="e_wo_entrp">    -83.24827314 </i>
    <i name="e_0_energy">    -83.24848623 </i>
   </energy>
  </scstep>
  <structure>
   <crystal>
    <varray name="basis" >
     <v>       3.58903135       0.00000477      -0.00004853 </v>
     <v>       0.00013113       6.22993302       0.00067745 </v>
     <v>      -1.79451737      -1.03763879       5.86553600 </v>
    </varray>
    <i name="volume">    131.15199204 </i>
    <varray name="rec_basis" >
     <v>       0.27862786      -0.00001513       0.08524146 </v>
     <v>       0.00000017       0.16051228       0.02839537 </v>
     <v>       0.00000231      -0.00001854       0.17048483 </v>
    </varray>
   </crystal>
   <varray name="positions" >
    <v>       0.24997698       0.74983110       0.49994881 </v>
    <v>       0.50002302       0.50016890       0.00005119 </v>
    <v>       0.00002653       0.00016939       0.00005188 </v>
    <v>       0.74997347       0.24983061       0.49994812 </v>
    <v>       0.37500000       0.12500000       0.75000000 </v>
    <v>       0.12499999       0.37499938       0.25000008 </v>
    <v>       0.87500000       0.62500000       0.75000000 </v>
    <v>       0.62500001       0.87500062       0.24999992 </v>
   </varray>
  </structure>
  <varray name="forces" >
   <v>       0.00004215      -0.04048410      -0.01549065 </v>
   <v>      -0.00004215       0.04048410       0.01549065 </v>
   <v>      -0.00000446       0.04703702       0.01577711 </v>
   <v>       0.00000446      -0.04703702      -0.01577711 </v>
   <v>       0.00000000      -0.00000000       0.00000000 </v>
   <v>       0.00020871       0.00255003      -0.00272041 </v>
   <v>       0.00000000      -0.00000000       0.00000000 </v>
   <v>      -0.00020871      -0.00255003       0.00272041 </v>
  </varray>
  <varray name="stress" >
   <v>     -13.88897642      -0.05844319      -0.02506506 </v>
   <v>      -0.05844277      -3.18242540       1.33776564 </v>
   <v>      -0.02506546       1.33776511      -9.70909427 </v>
  </varray>
  <energy>
   <i name="e_fr_energy">    -83.24869933 </i>
   <i name="e_wo_entrp">    -83.24848623 </i>
   <i name="e_0_energy">     -0.00042619 </i>
  </energy>
  <time name="totalsc">  334.76  335.76</time>
 </calculation>
 <calculation>
  <scstep>
   <time name="dav">   54.35   54.47</time>
   <time name="total">   57.80   57.94</time>
   <energy>
    <i name="alphaZ">    906.21123931 </i>
    <i name="ewald">  -9706.43367497 </i>
    <i name="hartreedc">  -2756.21294905 </i>
    <i name="XCdc">    464.49102277 </i>
    <i name="pawpsdc">  10563.54298938 </i>
    <i name="pawaedc"> -11179.27311380 </i>
    <i name="eentropy">     -0.00038760 </i>
    <i name="bandstr">   -584.21698662 </i>
    <i name="atom">  12208.65988691 </i>
    <i name="e_fr_energy">    -83.23197367 </i>
    <i name="e_wo_entrp">    -83.23158607 </i>
    <i name="e_0_energy">    -83.23177987 </i>
   </energy>
  </scstep>
  <scstep>
   <time name="diag">    5.52    5.53</time>
   <time name="diis">   42.49   42.59</time>
   <time name="orth">    0.60    0.60</time>
   <time name="total">   52.03   52.16</time>
   <energy>
    <i name="e_fr_energy">    -83.25705491 </i>
    <i name="e_wo_entrp">    -83.25675943 </i>
    <i name="e_0_energy">    -83.25690717 </i>
   </energy>
  </scstep>
  <scstep>
   <time name="diag">    5.52    5.53</time>
   <time name="diis">   44.25   44.44</time>
   <time name="orth">    0.60    0.60</time>
   <time name="total">   53.84   54.05</time>
   <energy>
    <i name="e_fr_energy">    -83.26088507 </i>
    <i name="e_wo_entrp">    -83.26058878 </i>
    <i name="e_0_energy">    -83.26073692 </i>
   </energy>
  </scstep>
  <scstep>
   <time name="diag">    5.51    5.53</time>
   <time name="diis">   43.02   43.13</time>
   <time name="orth">    0.60    0.60</time>
   <time name="total">   52.59   52.71</time>
   <energy>
    <i name="e_fr_energy">    -83.25134668 </i>
    <i name="e_wo_entrp">    -83.25100755 </i>
    <i name="e_0_energy">    -83.25117711 </i>
   </energy>
  </scstep>
  <scstep>
   <time name="diag">    5.47    5.48</time>
   <time name="diis">   41.08   41.18</time>
   <time name="orth">    0.60    0.60</time>
   <time name="total">   50.55   50.67</time>
   <energy>
    <i name="e_fr_energy">    -83.24971092 </i>
    <i name="e_wo_entrp">    -83.24935274 </i>
    <i name="e_0_energy">    -83.24953183 </i>
   </energy>
  </scstep>
  <scstep>
   <time name="diag">    5.52    5.54</time>
   <time name="diis">   43.23   43.33</time>
   <time name="orth">    0.62    0.62</time>
   <time name="total">   52.73   52.85</time>
   <energy>
    <i name="e_fr_energy">    -83.24911439 </i>
    <i name="e_wo_entrp">    -83.24872377 </i>
    <i name="e_0_energy">    -83.24891908 </i>
   </energy>
  </scstep>
  <scstep>
   <time name="diag">    5.53    5.54</time>
   <time name="diis">   34.44   34.60</time>
   <time name="orth">    0.60    0.61</time>
   <time name="total">   44.04   44.23</time>
   <energy>
    <i name="e_fr_energy">    -83.24905943 </i>
    <i name="e_wo_entrp">    -83.24861599 </i>
    <i name="e_0_energy">    -83.24883771 </i>
   </energy>
  </scstep>
  <scstep>
   <time name="diag">    5.55    5.56</time>
   <time name="diis">   28.64   28.71</time>
   <time name="orth">    0.62    0.62</time>
   <time name="total">   36.26   36.35</time>
   <energy>
    <i name="alphaZ">    906.21123931 </i>
    <i name="ewald">  -9706.43367497 </i>
    <i name="hartreedc">  -2756.30919693 </i>
    <i name="XCdc">    464.49293859 </i>
    <i name="pawpsdc">  10565.33910814 </i>
    <i name="pawaedc"> -11180.92159495 </i>
    <i name="eentropy">     -0.00046298 </i>
    <i name="bandstr">   -584.28736239 </i>
    <i name="atom">  12208.65988691 </i>
    <i name="e_fr_energy">    -83.24911927 </i>
    <i name="e_wo_entrp">    -83.24865629 </i>
    <i name="e_0_energy">    -83.24888778 </i>
   </energy>
  </scstep>
  <structure>
   <crystal>
    <varray name="basis" >
     <v>       3.57820505       0.00001907      -0.00019412 </v>
     <v>       0.00015553       6.25208903       0.00270981 </v>
     <v>      -1.78934633      -1.03942231       5.86216895 </v>
    </varray>
    <i name="volume">    131.15199204 </i>
    <varray name="rec_basis" >
     <v>       0.27947436      -0.00004392       0.08529791 </v>
     <v>       0.00000069       0.15993425       0.02835818 </v>
     <v>       0.00000925      -0.00007393       0.17057504 </v>
    </varray>
   </crystal>
   <varray name="positions" >
    <v>       0.24990796       0.74932501       0.49979528 </v>
    <v>       0.50009204       0.50067499       0.00020472 </v>
    <v>       0.00010612       0.00067696       0.00020750 </v>
    <v>       0.74989388       0.24932304       0.49979250 </v>
    <v>       0.37500000       0.12500000       0.75000000 </v>
    <v>       0.12499994       0.37499750       0.25000032 </v>
    <v>       0.87500000       0.62500000       0.75000000 </v>
    <v>       0.62500006       0.87500250       0.24999968 </v>
   </varray>
  </structure>
  <varray name="forces" >
   <v>      -0.00017951      -0.01250838       0.01106671 </v>
   <v>       0.00017951       0.01250838      -0.01106671 </v>
   <v>      -0.00002058       0.01374534      -0.01245042 </v>
   <v>       0.00002058      -0.01374534       0.01245042 </v>
   <v>      -0.00000000      -0.00000000       0.00000000 </v>
   <v>       0.00009127       0.00021469      -0.00180014 </v>
   <v>      -0.00000000      -0.00000000       0.00000000 </v>
   <v>      -0.00009127      -0.00021469       0.00180014 </v>
  </varray>
  <varray name="stress" >
   <v>      -2.71655567      -0.04968079       0.02385209 </v>
   <v>      -0.04968072      -3.42452962      -0.21846691 </v>
   <v>       0.02385195      -0.21846721      -2.84635135 </v>
  </varray>
  <energy>
   <i name="e_fr_energy">    -83.24911927 </i>
   <i name="e_wo_entrp">    -83.24888778 </i>
   <i name="e_0_energy">     -0.00046298 </i>
  </energy>
  <time name="totalsc">  460.61  461.89</time>
 </calculation>
 <calculation>
  <scstep>
   <time name="dav">   62.06   62.21</time>
   <time name="total">   65.39   65.54</time>
   <energy>
    <i name="alphaZ">    906.21123931 </i>
    <i name="ewald">  -9706.43632805 </i>
    <i name="hartreedc">  -2756.31591891 </i>
    <i name="XCdc">    464.49362683 </i>
    <i name="pawpsdc">  10565.43958639 </i>
    <i name="pawaedc"> -11181.01702394 </i>
    <i name="eentropy">     -0.00046932 </i>
    <i name="bandstr">   -584.28382029 </i>
    <i name="atom">  12208.65988691 </i>
    <i name="e_fr_energy">    -83.24922107 </i>
    <i name="e_wo_entrp">    -83.24875175 </i>
    <i name="e_0_energy">    -83.24898641 </i>
   </energy>
  </scstep>
  <scstep>
   <time name="diag">    5.46    5.47</time>
   <time name="diis">   22.45   22.60</time>
   <time name="orth">    0.62    0.62</time>
   <time name="total">   31.99   32.16</time>
   <energy>
    <i name="e_fr_energy">    -83.25079225 </i>
    <i name="e_wo_entrp">    -83.25049527 </i>
    <i name="e_0_energy">    -83.25064376 </i>
   </energy>
  </scstep>
  <scstep>
   <time name="diag">    5.45    5.46</time>
   <time name="diis">   21.34   21.39</time>
   <time name="orth">    0.59    0.59</time>
   <time name="total">   30.88   30.95</time>
   <energy>
    <i name="e_fr_energy">    -83.24905419 </i>
    <i name="e_wo_entrp">    -83.24864003 </i>
    <i name="e_0_energy">    -83.24884711 </i>
   </energy>
  </scstep>
  <scstep>
   <time name="diag">    5.42    5.43</time>
   <time name="diis">   18.07   18.11</time>
   <time name="orth">    0.57    0.57</time>
   <time name="total">   25.57   25.63</time>
   <energy>
    <i name="alphaZ">    906.21123931 </i>
    <i name="ewald">  -9706.43632805 </i>
    <i name="hartreedc">  -2756.35485470 </i>
    <i name="XCdc">    464.49717437 </i>
    <i name="pawpsdc">  10565.80183641 </i>
    <i name="pawaedc"> -11181.37080909 </i>
    <i name="eentropy">     -0.00046300 </i>
    <i name="bandstr">   -584.25683138 </i>
    <i name="atom">  12208.65988691 </i>
    <i name="e_fr_energy">    -83.24914921 </i>
    <i name="e_wo_entrp">    -83.24868621 </i>
    <i name="e_0_energy">    -83.24891771 </i>
   </energy>
  </scstep>
  <structure>
   <crystal>
    <varray name="basis" >
     <v>       3.57849133       0.00001869      -0.00019026 </v>
     <v>       0.00015489       6.25150186       0.00265601 </v>
     <v>      -1.78948306      -1.03937500       5.86225753 </v>
    </varray>
    <i name="volume">    131.15199204 </i>
    <varray name="rec_basis" >
     <v>       0.27945191      -0.00004316       0.08529642 </v>
     <v>       0.00000067       0.15994951       0.02835916 </v>
     <v>       0.00000907      -0.00007247       0.17057267 </v>
    </varray>
   </crystal>
   <varray name="positions" >
    <v>       0.24990978       0.74933836       0.49979934 </v>
    <v>       0.50009022       0.50066164       0.00020066 </v>
    <v>       0.00010401       0.00066357       0.00020338 </v>
    <v>       0.74989599       0.24933643       0.49979662 </v>
    <v>       0.37500000       0.12500000       0.75000000 </v>
    <v>       0.12499994       0.37499755       0.25000031 </v>
    <v>       0.87500000       0.62500000       0.75000000 </v>
    <v>       0.62500006       0.87500245       0.24999969 </v>
   </varray>
  </structure>
  <varray name="forces" >
   <v>      -0.00018698      -0.00976648       0.01162871 </v>
   <v>       0.00018698       0.00976648      -0.01162871 </v>
   <v>      -0.00017939       0.00728406      -0.01227492 </v>
   <v>       0.00017939      -0.00728406       0.01227492 </v>
   <v>      -0.00000000       0.00000000      -0.00000000 </v>
   <v>      -0.00008078      -0.00089385       0.00106081 </v>
   <v>      -0.00000000       0.00000000      -0.00000000 </v>
   <v>       0.00008078       0.00089385      -0.00106081 </v>
  </varray>
  <varray name="stress" >
   <v>      -3.81719541      -0.03708384       0.05271778 </v>
   <v>      -0.03708324      -8.24290446      -1.24987234 </v>
   <v>       0.05271785      -1.24987207      -5.66029354 </v>
  </varray>
  <energy>
   <i name="e_fr_energy">    -83.24914921 </i>
   <i name="e_wo_entrp">    -83.24891771 </i>
   <i name="e_0_energy">     -0.00046300 </i>
  </energy>
  <time name="totalsc">  213.28  213.89</time>
 </calculation>
 <calculation>
  <scstep>
   <time name="dav">   54.82   54.95</time>
   <time name="total">   58.29   58.43</time>
   <energy>
    <i name="alphaZ">    906.21123931 </i>
    <i name="ewald">  -9706.47559828 </i>
    <i name="hartreedc">  -2756.30513918 </i>
    <i name="XCdc">    464.49312992 </i>
    <i name="pawpsdc">  10565.91539716 </i>
    <i name="pawaedc"> -11181.45862028 </i>
    <i name="eentropy">     -0.00045765 </i>
    <i name="bandstr">   -584.28568260 </i>
    <i name="atom">  12208.65988691 </i>
    <i name="e_fr_energy">    -83.24584469 </i>
    <i name="e_wo_entrp">    -83.24538704 </i>
    <i name="e_0_energy">    -83.24561586 </i>
   </energy>
  </scstep>
  <scstep>
   <time name="diag">    5.47    5.52</time>
   <time name="diis">   41.05   41.19</time>
   <time name="orth">    0.61    0.61</time>
   <time name="total">   50.66   50.87</time>
   <energy>
    <i name="e_fr_energy">    -83.25577624 </i>
    <i name="e_wo_entrp">    -83.25559610 </i>
    <i name="e_0_energy">    -83.25568617 </i>
   </energy>
  </scstep>
  <scstep>
   <time name="diag">    5.45    5.46</time>
   <time name="diis">   38.91   39.01</time>
   <time name="orth">    0.61    0.62</time>
   <time name="total">   48.43   48.55</time>
   <energy>
    <i name="e_fr_energy">    -83.25000084 </i>
    <i name="e_wo_entrp">    -83.24956838 </i>
    <i name="e_0_energy">    -83.24978461 </i>
   </energy>
  </scstep>
  <scstep>
   <time name="diag">    5.44    5.46</time>
   <time name="diis">   37.97   38.07</time>
   <time name="orth">    0.61    0.61</time>
   <time name="total">   47.48   47.61</time>
   <energy>
    <i name="e_fr_energy">    -83.24988734 </i>
    <i name="e_wo_entrp">    -83.24944720 </i>
    <i name="e_0_energy">    -83.24966727 </i>
   </energy>
  </scstep>
  <scstep>
   <time name="diag">    5.45    5.47</time>
   <time name="diis">   31.28   31.35</time>
   <time name="orth">    0.61    0.61</time>
   <time name="total">   40.76   40.85</time>
   <energy>
    <i name="e_fr_energy">    -83.24929498 </i>
    <i name="e_wo_entrp">    -83.24886653 </i>
    <i name="e_0_energy">    -83.24908076 </i>
   </energy>
  </scstep>
  <scstep>
   <time name="diag">    5.38    5.39</time>
   <time name="diis">   24.75   24.89</time>
   <time name="orth">    0.60    0.61</time>
   <time name="total">   32.17   32.33</time>
   <energy>
    <i name="alphaZ">    906.21123931 </i>
    <i name="ewald">  -9706.47559828 </i>
    <i name="hartreedc">  -2756.35351500 </i>
    <i name="XCdc">    464.49390094 </i>
    <i name="pawpsdc">  10566.05037433 </i>
    <i name="pawaedc"> -11181.59664917 </i>
    <i name="eentropy">     -0.00045761 </i>
    <i name="bandstr">   -584.23842660 </i>
    <i name="atom">  12208.65988691 </i>
    <i name="e_fr_energy">    -83.24924517 </i>
    <i name="e_wo_entrp">    -83.24878756 </i>
    <i name="e_0_energy">    -83.24901636 </i>
   </energy>
  </scstep>
  <structure>
   <crystal>
    <varray name="basis" >
     <v>       3.58375821       0.00001173      -0.00011940 </v>
     <v>       0.00014301       6.24071193       0.00166672 </v>
     <v>      -1.79199865      -1.03850598       5.86389162 </v>
    </varray>
    <i name="volume">    131.15199204 </i>
    <varray name="rec_basis" >
     <v>       0.27903952      -0.00002917       0.08526900 </v>
     <v>       0.00000042       0.16023055       0.02837725 </v>
     <v>       0.00000568      -0.00004554       0.17052888 </v>
    </varray>
   </crystal>
   <varray name="positions" >
    <v>       0.24994335       0.74958387       0.49987404 </v>
    <v>       0.50005665       0.50041613       0.00012596 </v>
    <v>       0.00006529       0.00041734       0.00012767 </v>
    <v>       0.74993471       0.24958266       0.49987233 </v>
    <v>       0.37500000       0.12500000       0.75000000 </v>
    <v>       0.12499997       0.37499846       0.25000019 </v>
    <v>       0.87500000       0.62500000       0.75000000 </v>
    <v>       0.62500003       0.87500154       0.24999981 </v>
   </varray>
  </structure>
  <varray name="forces" >
   <v>      -0.00003925      -0.01053790       0.00922889 </v>
   <v>       0.00003925       0.01053790      -0.00922889 </v>
   <v>      -0.00010521       0.01007839      -0.00804411 </v>
   <v>       0.00010521      -0.01007839       0.00804411 </v>
   <v>       0.00000000      -0.00000000       0.00000000 </v>
   <v>       0.00010192      -0.00259898       0.00099141 </v>
   <v>       0.00000000       0.00000000       0.00000000 </v>
   <v>      -0.00010192       0.00259898      -0.00099141 </v>
  </varray>
  <varray name="stress" >
   <v>       1.67839596      -0.10106924       0.22114599 </v>
   <v>      -0.10106953      -8.33013847      -2.29259247 </v>
   <v>       0.22114615      -2.29259305      -2.38481965 </v>
  </varray>
  <energy>
   <i name="e_fr_energy">    -83.24924517 </i>
   <i name="e_wo_entrp">    -83.24901636 </i>
   <i name="e_0_energy">     -0.00045761 </i>
  </energy>
  <time name="totalsc">  337.03  338.08</time>
 </calculation>
 <calculation>
  <scstep>
   <time name="dav">   54.30   54.43</time>
   <time name="total">   57.73   57.87</time>
   <energy>
    <i name="alphaZ">    906.21123931 </i>
    <i name="ewald">  -9706.48848261 </i>
    <i name="hartreedc">  -2756.35467132 </i>
    <i name="XCdc">    464.49774733 </i>
    <i name="pawpsdc">  10566.06992917 </i>
    <i name="pawaedc"> -11181.62083322 </i>
    <i name="eentropy">     -0.00047884 </i>
    <i name="bandstr">   -584.22268251 </i>
    <i name="atom">  12208.65988691 </i>
    <i name="e_fr_energy">    -83.24834578 </i>
    <i name="e_wo_entrp">    -83.24786694 </i>
    <i name="e_0_energy">    -83.24810636 </i>
   </energy>
  </scstep>
  <scstep>
   <time name="diag">    5.38    5.40</time>
   <time name="diis">   40.55   40.65</time>
   <time name="orth">    0.54    0.54</time>
   <time name="total">   49.84   49.96</time>
   <energy>
    <i name="e_fr_energy">    -83.24949517 </i>
    <i name="e_wo_entrp">    -83.24911892 </i>
    <i name="e_0_energy">    -83.24930704 </i>
   </energy>
  </scstep>
  <scstep>
   <time name="diag">    5.36    5.37</time>
   <time name="diis">   40.06   40.25</time>
   <time name="orth">    0.57    0.57</time>
   <time name="total">   49.37   49.58</time>
   <energy>
    <i name="e_fr_energy">    -83.24980595 </i>
    <i name="e_wo_entrp">    -83.24946050 </i>
    <i name="e_0_energy">    -83.24963323 </i>
   </energy>
  </scstep>
  <scstep>
   <time name="diag">    5.45    5.46</time>
   <time name="diis">   27.43   27.50</time>
   <time name="orth">    0.60    0.60</time>
   <time name="total">   36.81   36.90</time>
   <energy>
    <i name="e_fr_energy">    -83.24920445 </i>
    <i name="e_wo_entrp">    -83.24878923 </i>
    <i name="e_0_energy">    -83.24899684 </i>
   </energy>
  </scstep>
  <scstep>
   <time name="diag">    5.43    5.44</time>
   <time name="diis">   22.43   22.48</time>
   <time name="orth">    0.58    0.58</time>
   <time name="total">   31.79   31.86</time>
   <energy>
    <i name="e_fr_energy">    -83.24909617 </i>
    <i name="e_wo_entrp">    -83.24866303 </i>
    <i name="e_0_energy">    -83.24887960 </i>
   </energy>
  </scstep>
  <scstep>
   <time name="diag">    5.47    5.48</time>
   <time name="diis">   19.60   19.65</time>
   <time name="orth">    0.61    0.62</time>
   <time name="total">   27.09   27.16</time>
   <energy>
    <i name="alphaZ">    906.21123931 </i>
    <i name="ewald">  -9706.48848261 </i>
    <i name="hartreedc">  -2756.33513323 </i>
    <i name="XCdc">    464.49268604 </i>
    <i name="pawpsdc">  10566.03645203 </i>
    <i name="pawaedc"> -11181.58456365 </i>
    <i name="eentropy">     -0.00043325 </i>
    <i name="bandstr">   -584.24079811 </i>
    <i name="atom">  12208.65988691 </i>
    <i name="e_fr_energy">    -83.24914655 </i>
    <i name="e_wo_entrp">    -83.24871330 </i>
    <i name="e_0_energy">    -83.24892993 </i>
   </energy>
  </scstep>
  <structure>
   <crystal>
    <varray name="basis" >
     <v>       3.58639399       0.00000825      -0.00008396 </v>
     <v>       0.00013707       6.23532110       0.00117209 </v>
     <v>      -1.79325762      -1.03807216       5.86471252 </v>
    </varray>
    <i name="volume">    131.15199204 </i>
    <varray name="rec_basis" >
     <v>       0.27883360      -0.00002216       0.08525524 </v>
     <v>       0.00000030       0.16037133       0.02838631 </v>
     <v>       0.00000399      -0.00003205       0.17050689 </v>
    </varray>
   </crystal>
   <varray name="positions" >
    <v>       0.24996015       0.74970684       0.49991139 </v>
    <v>       0.50003985       0.50029316       0.00008861 </v>
    <v>       0.00004592       0.00029402       0.00008981 </v>
    <v>       0.74995408       0.24970598       0.49991019 </v>
    <v>       0.37500000       0.12500000       0.75000000 </v>
    <v>       0.12499998       0.37499892       0.25000014 </v>
    <v>       0.87500000       0.62500000       0.75000000 </v>
    <v>       0.62500002       0.87500108       0.24999986 </v>
   </varray>
  </structure>
  <varray name="forces" >
   <v>       0.00024312      -0.04475865      -0.00512803 </v>
   <v>      -0.00024312       0.04475865       0.00512803 </v>
   <v>      -0.00012176       0.05078507       0.00464767 </v>
   <v>       0.00012176      -0.05078507      -0.00464767 </v>
   <v>       0.00000000      -0.00000000       0.00000000 </v>
   <v>      -0.00000741       0.00132409      -0.00228330 </v>
   <v>       0.00000000       0.00000000       0.00000000 </v>
   <v>       0.00000741      -0.00132409       0.00228330 </v>
  </varray>
  <varray name="stress" >
   <v>       1.01496239      -0.07155908       0.14869949 </v>
   <v>      -0.07155896      -2.66188290      -1.58663208 </v>
   <v>       0.14869955      -1.58663230      -0.48340892 </v>
  </varray>
  <energy>
   <i name="e_fr_energy">    -83.24914655 </i>
   <i name="e_wo_entrp">    -83.24892993 </i>
   <i name="e_0_energy">     -0.00043325 </i>
  </energy>
  <time name="totalsc">  312.35  313.20</time>
 </calculation>
 <calculation>
  <scstep>
   <time name="dav">   54.33   54.53</time>
   <time name="total">   57.75   57.97</time>
   <energy>
    <i name="alphaZ">    906.21123931 </i>
    <i name="ewald">  -9706.49030194 </i>
    <i name="hartreedc">  -2756.37785110 </i>
    <i name="XCdc">    464.50018518 </i>
    <i name="pawpsdc">  10566.10986807 </i>
    <i name="pawaedc"> -11181.67870219 </i>
    <i name="eentropy">     -0.00045108 </i>
    <i name="bandstr">   -584.18292805 </i>
    <i name="atom">  12208.65988691 </i>
    <i name="e_fr_energy">    -83.24905488 </i>
    <i name="e_wo_entrp">    -83.24860380 </i>
    <i name="e_0_energy">    -83.24882934 </i>
   </energy>
  </scstep>
  <scstep>
   <time name="diag">    5.47    5.48</time>
   <time name="diis">   24.93   24.99</time>
   <time name="orth">    0.60    0.60</time>
   <time name="total">   34.39   34.48</time>
   <energy>
    <i name="e_fr_energy">    -83.24966668 </i>
    <i name="e_wo_entrp">    -83.24933821 </i>
    <i name="e_0_energy">    -83.24950245 </i>
   </energy>
  </scstep>
  <scstep>
   <time name="diag">    5.51    5.53</time>
   <time name="diis">   20.16   20.21</time>
   <time name="orth">    0.60    0.60</time>
   <time name="total">   29.68   29.75</time>
   <energy>
    <i name="e_fr_energy">    -83.24905706 </i>
    <i name="e_wo_entrp">    -83.24864774 </i>
    <i name="e_0_energy">    -83.24885240 </i>
   </energy>
  </scstep>
  <scstep>
   <time name="diag">    5.51    5.52</time>
   <time name="diis">   18.28   18.32</time>
   <time name="orth">    0.62    0.62</time>
   <time name="total">   25.84   25.90</time>
   <energy>
    <i name="alphaZ">    906.21123931 </i>
    <i name="ewald">  -9706.49030194 </i>
    <i name="hartreedc">  -2756.35812200 </i>
    <i name="XCdc">    464.49731974 </i>
    <i name="pawpsdc">  10566.08572062 </i>
    <i name="pawaedc"> -11181.64746577 </i>
    <i name="eentropy">     -0.00044650 </i>
    <i name="bandstr">   -584.20686140 </i>
    <i name="atom">  12208.65988691 </i>
    <i name="e_fr_energy">    -83.24903103 </i>
    <i name="e_wo_entrp">    -83.24858453 </i>
    <i name="e_0_energy">    -83.24880778 </i>
   </energy>
  </scstep>
  <structure>
   <crystal>
    <varray name="basis" >
     <v>       3.58686256       0.00000763      -0.00007767 </v>
     <v>       0.00013602       6.23436338       0.00108418 </v>
     <v>      -1.79348144      -1.03799511       5.86485868 </v>
    </varray>
    <i name="volume">    131.15199204 </i>
    <varray name="rec_basis" >
     <v>       0.27879703      -0.00002091       0.08525279 </v>
     <v>       0.00000027       0.16039636       0.02838792 </v>
     <v>       0.00000369      -0.00002965       0.17050297 </v>
    </varray>
   </crystal>
   <varray name="positions" >
    <v>       0.24996313       0.74972871       0.49991803 </v>
    <v>       0.50003687       0.50027129       0.00008197 </v>
    <v>       0.00004248       0.00027208       0.00008308 </v>
    <v>       0.74995752       0.24972792       0.49991692 </v>
    <v>       0.37500000       0.12500000       0.75000000 </v>
    <v>       0.12499998       0.37499900       0.25000013 </v>
    <v>       0.87500000       0.62500000       0.75000000 </v>
    <v>       0.62500002       0.87500100       0.24999987 </v>
   </varray>
  </structure>
  <varray name="forces" >
   <v>       0.00045457      -0.08123907      -0.01956732 </v>
   <v>      -0.00045457       0.08123907       0.01956732 </v>
   <v>      -0.00005298       0.07930944       0.01905537 </v>
   <v>       0.00005298      -0.07930944      -0.01905537 </v>
   <v>       0.00000000      -0.00000000      -0.00000000 </v>
   <v>       0.00006741       0.00141000      -0.00027522 </v>
   <v>      -0.00000000      -0.00000000      -0.00000000 </v>
[...]
    <i name="eentropy">     -0.00042929 </i>
    <i name="bandstr">   -584.20265584 </i>
    <i name="atom">  12208.65988691 </i>
    <i name="e_fr_energy">    -83.24905794 </i>
    <i name="e_wo_entrp">    -83.24862865 </i>
    <i name="e_0_energy">    -83.24884329 </i>
   </energy>
  </scstep>
  <structure>
   <crystal>
    <varray name="basis" >
     <v>       3.58639401       0.00000825      -0.00008396 </v>
     <v>       0.00013707       6.23532107       0.00117208 </v>
     <v>      -1.79325763      -1.03807216       5.86471253 </v>
    </varray>
    <i name="volume">    131.15199204 </i>
    <varray name="rec_basis" >
     <v>       0.27883360      -0.00002216       0.08525524 </v>
     <v>       0.00000030       0.16037133       0.02838631 </v>
     <v>       0.00000399      -0.00003205       0.17050689 </v>
    </varray>
   </crystal>
   <varray name="positions" >
    <v>       0.24996015       0.74970684       0.49991139 </v>
    <v>       0.50003985       0.50029316       0.00008861 </v>
    <v>       0.00004592       0.00029402       0.00008981 </v>
    <v>       0.74995408       0.24970598       0.49991019 </v>
    <v>       0.37500000       0.12500000       0.75000000 </v>
    <v>       0.12499998       0.37499892       0.25000014 </v>
    <v>       0.87500000       0.62500000       0.75000000 </v>
    <v>       0.62500002       0.87500108       0.24999986 </v>
   </varray>
  </structure>
  <varray name="forces" >
   <v>       0.00004884      -0.03373826      -0.00445251 </v>
   <v>      -0.00004884       0.03373826       0.00445251 </v>
   <v>      -0.00014196       0.02597501       0.00297601 </v>
   <v>       0.00014196      -0.02597501      -0.00297601 </v>
   <v>       0.00000000      -0.00000000       0.00000000 </v>
   <v>      -0.00003487       0.00234012       0.00039378 </v>
   <v>       0.00000000      -0.00000000       0.00000000 </v>
   <v>       0.00003487      -0.00234012      -0.00039378 </v>
  </varray>
  <varray name="stress" >
   <v>      -5.43493810      -0.01261579      -0.00045117 </v>
   <v>      -0.01261560      -2.98682966      -0.29116528 </v>
   <v>      -0.00045052      -0.29116539      -4.54787443 </v>
  </varray>
  <energy>
   <i name="e_fr_energy">    -83.24905794 </i>
   <i name="e_wo_entrp">    -83.24884329 </i>
   <i name="e_0_energy">     -0.00042929 </i>
  </energy>
  <time name="totalsc">  183.32  183.77</time>
 </calculation>
 <calculation>
  <scstep>
   <time name="dav">   33.49   33.57</time>
   <time name="total">   37.01   37.10</time>
   <energy>
    <i name="alphaZ">    906.21123931 </i>
    <i name="ewald">  -9706.48848260 </i>
    <i name="hartreedc">  -2756.35475412 </i>
    <i name="XCdc">    464.49644657 </i>
    <i name="pawpsdc">  10566.09426989 </i>
    <i name="pawaedc"> -11181.65206075 </i>
    <i name="eentropy">     -0.00044880 </i>
    <i name="bandstr">   -584.21523871 </i>
    <i name="atom">  12208.65988691 </i>
    <i name="e_fr_energy">    -83.24914230 </i>
    <i name="e_wo_entrp">    -83.24869350 </i>
    <i name="e_0_energy">    -83.24891790 </i>
   </energy>
  </scstep>
  <scstep>
   <time name="diag">    5.48    5.50</time>
   <time name="diis">   16.82   16.86</time>
   <time name="orth">    0.61    0.62</time>
   <time name="total">   26.48   26.55</time>
   <energy>
    <i name="e_fr_energy">    -83.24927586 </i>
    <i name="e_wo_entrp">    -83.24885433 </i>
    <i name="e_0_energy">    -83.24906509 </i>
   </energy>
  </scstep>
  <scstep>
   <time name="diag">    5.50    5.51</time>
   <time name="diis">   16.90   16.94</time>
   <time name="orth">    0.62    0.62</time>
   <time name="total">   26.34   26.40</time>
   <energy>
    <i name="e_fr_energy">    -83.24914281 </i>
    <i name="e_wo_entrp">    -83.24869249 </i>
    <i name="e_0_energy">    -83.24891765 </i>
   </energy>
  </scstep>
  <scstep>
   <time name="diag">    5.48    5.50</time>
   <time name="diis">   15.89   15.92</time>
   <time name="orth">    0.60    0.60</time>
   <time name="total">   23.51   23.56</time>
   <energy>
    <i name="alphaZ">    906.21123931 </i>
    <i name="ewald">  -9706.48848260 </i>
    <i name="hartreedc">  -2756.35643962 </i>
    <i name="XCdc">    464.49697184 </i>
    <i name="pawpsdc">  10566.09657636 </i>
    <i name="pawaedc"> -11181.65512020 </i>
    <i name="eentropy">     -0.00044943 </i>
    <i name="bandstr">   -584.21335706 </i>
    <i name="atom">  12208.65988691 </i>
    <i name="e_fr_energy">    -83.24917448 </i>
    <i name="e_wo_entrp">    -83.24872505 </i>
    <i name="e_0_energy">    -83.24894977 </i>
   </energy>
  </scstep>
  <structure>
   <crystal>
    <varray name="basis" >
     <v>       3.58639400       0.00000825      -0.00008396 </v>
     <v>       0.00013707       6.23532109       0.00117208 </v>
     <v>      -1.79325762      -1.03807216       5.86471252 </v>
    </varray>
    <i name="volume">    131.15199204 </i>
    <varray name="rec_basis" >
     <v>       0.27883360      -0.00002216       0.08525524 </v>
     <v>       0.00000030       0.16037133       0.02838631 </v>
     <v>       0.00000399      -0.00003205       0.17050689 </v>
    </varray>
   </crystal>
   <varray name="positions" >
    <v>       0.24996015       0.74970683       0.49991139 </v>
    <v>       0.50003985       0.50029317       0.00008861 </v>
    <v>       0.00004592       0.00029402       0.00008981 </v>
    <v>       0.74995408       0.24970598       0.49991019 </v>
    <v>       0.37500000       0.12500000       0.75000000 </v>
    <v>       0.12499998       0.37499892       0.25000014 </v>
    <v>       0.87500000       0.62500000       0.75000000 </v>
    <v>       0.62500002       0.87500108       0.24999986 </v>
   </varray>
  </structure>
  <varray name="forces" >
   <v>       0.00004244      -0.02856415      -0.00400603 </v>
   <v>      -0.00004244       0.02856415       0.00400603 </v>
   <v>      -0.00014216       0.03084163       0.00334265 </v>
   <v>       0.00014216      -0.03084163      -0.00334265 </v>
   <v>       0.00000000       0.00000000       0.00000000 </v>
   <v>       0.00001370       0.00222669      -0.00144338 </v>
   <v>       0.00000000       0.00000000       0.00000000 </v>
   <v>      -0.00001370      -0.00222669       0.00144338 </v>
  </varray>
  <varray name="stress" >
   <v>      -4.88428548      -0.02903704       0.02790908 </v>
   <v>      -0.02903722      -2.38462062      -0.27170508 </v>
   <v>       0.02790855      -0.27170572      -3.94256221 </v>
  </varray>
  <energy>
   <i name="e_fr_energy">    -83.24917448 </i>
   <i name="e_wo_entrp">    -83.24894977 </i>
   <i name="e_0_energy">     -0.00044943 </i>
  </energy>
  <time name="totalsc">  172.75  173.17</time>
 </calculation>
 <calculation>
  <scstep>
   <time name="dav">   29.62   29.71</time>
   <time name="total">   33.09   33.19</time>
   <energy>
    <i name="alphaZ">    906.21123931 </i>
    <i name="ewald">  -9706.48848258 </i>
    <i name="hartreedc">  -2756.35654675 </i>
    <i name="XCdc">    464.49698323 </i>
    <i name="pawpsdc">  10566.09673564 </i>
    <i name="pawaedc"> -11181.65532411 </i>
    <i name="eentropy">     -0.00044391 </i>
    <i name="bandstr">   -584.21323922 </i>
    <i name="atom">  12208.65988691 </i>
    <i name="e_fr_energy">    -83.24919148 </i>
    <i name="e_wo_entrp">    -83.24874757 </i>
    <i name="e_0_energy">    -83.24896952 </i>
   </energy>
  </scstep>
  <scstep>
   <time name="diag">    5.48    5.50</time>
   <time name="diis">   21.53   21.58</time>
   <time name="orth">    0.62    0.62</time>
   <time name="total">   31.00   31.08</time>
   <energy>
    <i name="e_fr_energy">    -83.25190633 </i>
    <i name="e_wo_entrp">    -83.25164445 </i>
    <i name="e_0_energy">    -83.25177539 </i>
   </energy>
  </scstep>
  <scstep>
   <time name="diag">    5.50    5.52</time>
   <time name="diis">   22.70   22.76</time>
   <time name="orth">    0.60    0.60</time>
   <time name="total">   32.24   32.32</time>
   <energy>
    <i name="e_fr_energy">    -83.24901764 </i>
    <i name="e_wo_entrp">    -83.24865784 </i>
    <i name="e_0_energy">    -83.24883774 </i>
   </energy>
  </scstep>
  <scstep>
   <time name="diag">    5.49    5.51</time>
   <time name="diis">   17.47   17.51</time>
   <time name="orth">    0.59    0.60</time>
   <time name="total">   24.97   25.03</time>
   <energy>
    <i name="alphaZ">    906.21123931 </i>
    <i name="ewald">  -9706.48848258 </i>
    <i name="hartreedc">  -2756.36384307 </i>
    <i name="XCdc">    464.49804142 </i>
    <i name="pawpsdc">  10566.11046085 </i>
    <i name="pawaedc"> -11181.67270163 </i>
    <i name="eentropy">     -0.00042869 </i>
    <i name="bandstr">   -584.20323544 </i>
    <i name="atom">  12208.65988691 </i>
    <i name="e_fr_energy">    -83.24906292 </i>
    <i name="e_wo_entrp">    -83.24863422 </i>
    <i name="e_0_energy">    -83.24884857 </i>
   </energy>
  </scstep>
  <structure>
   <crystal>
    <varray name="basis" >
     <v>       3.58639399       0.00000825      -0.00008396 </v>
     <v>       0.00013707       6.23532110       0.00117209 </v>
     <v>      -1.79325762      -1.03807216       5.86471252 </v>
    </varray>
    <i name="volume">    131.15199204 </i>
    <varray name="rec_basis" >
     <v>       0.27883360      -0.00002216       0.08525524 </v>
     <v>       0.00000030       0.16037133       0.02838631 </v>
     <v>       0.00000399      -0.00003205       0.17050689 </v>
    </varray>
   </crystal>
   <varray name="positions" >
    <v>       0.24996015       0.74970683       0.49991139 </v>
    <v>       0.50003985       0.50029317       0.00008861 </v>
    <v>       0.00004592       0.00029402       0.00008981 </v>
    <v>       0.74995408       0.24970598       0.49991019 </v>
    <v>       0.37500000       0.12500000       0.75000000 </v>
    <v>       0.12499998       0.37499892       0.25000014 </v>
    <v>       0.87500000       0.62500000       0.75000000 </v>
    <v>       0.62500002       0.87500108       0.24999986 </v>
   </varray>
  </structure>
  <varray name="forces" >
   <v>       0.00004788      -0.03348658      -0.00436580 </v>
   <v>      -0.00004788       0.03348658       0.00436580 </v>
   <v>      -0.00014931       0.02559480       0.00294271 </v>
   <v>       0.00014931      -0.02559480      -0.00294271 </v>
   <v>       0.00000000      -0.00000000      -0.00000000 </v>
   <v>      -0.00003386       0.00209978       0.00049470 </v>
   <v>      -0.00000000      -0.00000000      -0.00000000 </v>
   <v>       0.00003386      -0.00209978      -0.00049470 </v>
  </varray>
  <varray name="stress" >
   <v>      -5.44740336      -0.01269249      -0.00557116 </v>
   <v>      -0.01269229      -2.97633504      -0.31280006 </v>
   <v>      -0.00557149      -0.31280065      -4.53047026 </v>
  </varray>
  <energy>
   <i name="e_fr_energy">    -83.24906292 </i>
   <i name="e_wo_entrp">    -83.24884857 </i>
   <i name="e_0_energy">     -0.00042869 </i>
  </energy>
  <time name="totalsc">  181.49  181.96</time>
 </calculation>
 <calculation>
  <scstep>
   <time name="dav">   33.59   33.67</time>
   <time name="total">   37.19   37.28</time>
   <energy>
    <i name="alphaZ">    906.21123931 </i>
    <i name="ewald">  -9706.48848258 </i>
    <i name="hartreedc">  -2756.35462727 </i>
    <i name="XCdc">    464.49647439 </i>
    <i name="pawpsdc">  10566.09421604 </i>
    <i name="pawaedc"> -11181.65195789 </i>
    <i name="eentropy">     -0.00044889 </i>
    <i name="bandstr">   -584.21544098 </i>
    <i name="atom">  12208.65988691 </i>
    <i name="e_fr_energy">    -83.24914095 </i>
    <i name="e_wo_entrp">    -83.24869206 </i>
    <i name="e_0_energy">    -83.24891650 </i>
   </energy>
  </scstep>
  <scstep>
   <time name="diag">    5.46    5.48</time>
   <time name="diis">   16.84   16.88</time>
   <time name="orth">    0.61    0.62</time>
   <time name="total">   24.39   24.45</time>
   <energy>
    <i name="alphaZ">    906.21123931 </i>
    <i name="ewald">  -9706.48848258 </i>
    <i name="hartreedc">  -2756.36105136 </i>
    <i name="XCdc">    464.49778917 </i>
    <i name="pawpsdc">  10566.10436376 </i>
    <i name="pawaedc"> -11181.66485600 </i>
    <i name="eentropy">     -0.00044141 </i>
    <i name="bandstr">   -584.20765486 </i>
    <i name="atom">  12208.65988691 </i>
    <i name="e_fr_energy">    -83.24920704 </i>
    <i name="e_wo_entrp">    -83.24876563 </i>
    <i name="e_0_energy">    -83.24898634 </i>
   </energy>
  </scstep>
  <structure>
   <crystal>
    <varray name="basis" >
     <v>       3.58639399       0.00000825      -0.00008396 </v>
     <v>       0.00013707       6.23532110       0.00117209 </v>
     <v>      -1.79325762      -1.03807216       5.86471252 </v>
    </varray>
    <i name="volume">    131.15199204 </i>
    <varray name="rec_basis" >
     <v>       0.27883360      -0.00002216       0.08525524 </v>
     <v>       0.00000030       0.16037133       0.02838631 </v>
     <v>       0.00000399      -0.00003205       0.17050689 </v>
    </varray>
   </crystal>
   <varray name="positions" >
    <v>       0.24996015       0.74970683       0.49991139 </v>
    <v>       0.50003985       0.50029317       0.00008861 </v>
    <v>       0.00004592       0.00029402       0.00008981 </v>
    <v>       0.74995408       0.24970598       0.49991019 </v>
    <v>       0.37500000       0.12500000       0.75000000 </v>
    <v>       0.12499998       0.37499892       0.25000014 </v>
    <v>       0.87500000       0.62500000       0.75000000 </v>
    <v>       0.62500002       0.87500108       0.24999986 </v>
   </varray>
  </structure>
  <varray name="forces" >
   <v>       0.00009353      -0.03309534      -0.00403789 </v>
   <v>      -0.00009353       0.03309534       0.00403789 </v>
   <v>      -0.00009223       0.02589035       0.00325569 </v>
   <v>       0.00009223      -0.02589035      -0.00325569 </v>
   <v>      -0.00000000       0.00000000       0.00000000 </v>
   <v>      -0.00009017      -0.00030832       0.00119294 </v>
   <v>      -0.00000000       0.00000000       0.00000000 </v>
   <v>       0.00009017       0.00030832      -0.00119294 </v>
  </varray>
  <varray name="stress" >
   <v>      -5.47332017      -0.02985201       0.03045724 </v>
   <v>      -0.02985197      -2.98047332      -0.27545163 </v>
   <v>       0.03045682      -0.27545194      -4.53694221 </v>
  </varray>
  <energy>
   <i name="e_fr_energy">    -83.24920704 </i>
   <i name="e_wo_entrp">    -83.24898634 </i>
   <i name="e_0_energy">     -0.00044141 </i>
  </energy>
  <time name="totalsc">  121.70  122.00</time>
 </calculation>
 <calculation>
  <scstep>
   <time name="dav">   53.35   53.48</time>
   <time name="total">   56.80   56.93</time>
   <energy>
    <i name="alphaZ">    906.21123931 </i>
    <i name="ewald">  -9706.50108211 </i>
    <i name="hartreedc">  -2756.34492068 </i>
    <i name="XCdc">    464.49776688 </i>
    <i name="pawpsdc">  10566.10275507 </i>
    <i name="pawaedc"> -11181.66282327 </i>
    <i name="eentropy">     -0.00047685 </i>
    <i name="bandstr">   -584.20583458 </i>
    <i name="atom">  12208.65988691 </i>
    <i name="e_fr_energy">    -83.24348931 </i>
    <i name="e_wo_entrp">    -83.24301246 </i>
    <i name="e_0_energy">    -83.24325088 </i>
   </energy>
  </scstep>
  <scstep>
   <time name="diag">    5.53    5.54</time>
   <time name="diis">   41.15   41.25</time>
   <time name="orth">    0.60    0.60</time>
   <time name="total">   50.66   50.79</time>
   <energy>
    <i name="e_fr_energy">    -83.24885858 </i>
    <i name="e_wo_entrp">    -83.24842546 </i>
    <i name="e_0_energy">    -83.24864202 </i>
   </energy>
  </scstep>
  <scstep>
   <time name="diag">    5.51    5.52</time>
   <time name="diis">   42.26   42.36</time>
   <time name="orth">    0.60    0.61</time>
   <time name="total">   51.89   52.02</time>
   <energy>
    <i name="e_fr_energy">    -83.25515039 </i>
    <i name="e_wo_entrp">    -83.25496735 </i>
    <i name="e_0_energy">    -83.25505887 </i>
   </energy>
  </scstep>
  <scstep>
   <time name="diag">    5.51    5.52</time>
   <time name="diis">   36.09   36.17</time>
   <time name="orth">    0.61    0.61</time>
   <time name="total">   45.64   45.84</time>
   <energy>
    <i name="e_fr_energy">    -83.24852071 </i>
    <i name="e_wo_entrp">    -83.24816438 </i>
    <i name="e_0_energy">    -83.24834255 </i>
   </energy>
  </scstep>
  <scstep>
   <time name="diag">    5.50    5.52</time>
   <time name="diis">   34.09   34.17</time>
   <time name="orth">    0.60    0.60</time>
   <time name="total">   43.61   43.71</time>
   <energy>
    <i name="e_fr_energy">    -83.24836659 </i>
    <i name="e_wo_entrp">    -83.24798906 </i>
    <i name="e_0_energy">    -83.24817783 </i>
   </energy>
  </scstep>
  <scstep>
   <time name="diag">    5.42    5.43</time>
   <time name="diis">   26.91   26.98</time>
   <time name="orth">    0.62    0.62</time>
   <time name="total">   36.35   36.44</time>
   <energy>
    <i name="e_fr_energy">    -83.24808544 </i>
    <i name="e_wo_entrp">    -83.24768707 </i>
    <i name="e_0_energy">    -83.24788626 </i>
   </energy>
  </scstep>
  <scstep>
   <time name="diag">    5.48    5.49</time>
   <time name="diis">   25.39   25.45</time>
   <time name="orth">    0.61    0.61</time>
   <time name="total">   32.96   33.04</time>
   <energy>
    <i name="alphaZ">    906.21123931 </i>
    <i name="ewald">  -9706.50108211 </i>
    <i name="hartreedc">  -2756.41851166 </i>
    <i name="XCdc">    464.50761078 </i>
    <i name="pawpsdc">  10566.16665047 </i>
    <i name="pawaedc"> -11181.76882002 </i>
    <i name="eentropy">     -0.00042554 </i>
    <i name="bandstr">   -584.10456453 </i>
    <i name="atom">  12208.65988691 </i>
    <i name="e_fr_energy">    -83.24801639 </i>
    <i name="e_wo_entrp">    -83.24759085 </i>
    <i name="e_0_energy">    -83.24780362 </i>
   </energy>
  </scstep>
  <structure>
   <crystal>
    <varray name="basis" >
     <v>       3.59264600       0.00000000       0.00000000 </v>
     <v>       0.00012300       6.22255800       0.00000000 </v>
     <v>      -1.79624400      -1.03704600       5.86666800 </v>
    </varray>
    <i name="volume">    131.15199204 </i>
    <varray name="rec_basis" >
     <v>       0.27834638      -0.00000550       0.08522253 </v>
     <v>       0.00000000       0.16070561       0.02840780 </v>
     <v>       0.00000000       0.00000000       0.17045451 </v>
    </varray>
   </crystal>
   <varray name="positions" >
    <v>       0.24999995       0.74999846       0.49999993 </v>
    <v>       0.50000005       0.50000154       0.00000007 </v>
    <v>       0.00000003       0.00000154       0.00000007 </v>
    <v>       0.74999997       0.24999846       0.49999993 </v>
    <v>       0.37500000       0.12500000       0.75000000 </v>
    <v>       0.12500000       0.37499999       0.25000000 </v>
    <v>       0.87500000       0.62500000       0.75000000 </v>
    <v>       0.62500000       0.87500001       0.25000000 </v>
   </varray>
  </structure>
  <varray name="forces" >
   <v>      -0.00037214       0.00230245       0.00405809 </v>
   <v>       0.00037214      -0.00230245      -0.00405809 </v>
   <v>      -0.00020404       0.00120078      -0.00442641 </v>
   <v>       0.00020404      -0.00120078       0.00442641 </v>
   <v>      -0.00000000       0.00000000       0.00000000 </v>
   <v>       0.00005418       0.00407936      -0.00261232 </v>
   <v>       0.00000000       0.00000000       0.00000000 </v>
   <v>      -0.00005418      -0.00407936       0.00261232 </v>
  </varray>
  <varray name="stress" >
   <v>      -9.52352887       0.01392136      -0.14430400 </v>
   <v>       0.01392158      -5.85559133      -1.59318805 </v>
   <v>      -0.14430344      -1.59318842      -8.47544392 </v>
  </varray>
  <energy>
   <i name="e_fr_energy">    -83.24801639 </i>
   <i name="e_wo_entrp">    -83.24780362 </i>
   <i name="e_0_energy">     -0.00042554 </i>
  </energy>
