=========================================
SLURM_JOB_ID = 30554666
SLURM_JOB_NODELIST = lnode22
SLURM_GPUS = 
SLURM_CPUS_ON_NODE = 8
SLURM_JOB_PARTITION = lenovo
SLURM_TASK_PID = 888968
CUDA_VISIBLE_DEVICES = 
==========================================
 running on    8 total cores
 distrk:  each k-point on    8 cores,    1 groups
 distr:  one band on    1 cores,    8 groups
 using from now: INCAR     
 vasp.5.4.4.18Apr17-6-g9f103f2a35 (build Apr 28 2018 00:24:27) complex          
  
 POSCAR found type information on POSCAR  Ni
 POSCAR found :  1 types and       4 ions
 scaLAPACK will be used

 ----------------------------------------------------------------------------- 
|                                                                             |
|           W    W    AA    RRRRR   N    N  II  N    N   GGGG   !!!           |
|           W    W   A  A   R    R  NN   N  II  NN   N  G    G  !!!           |
|           W    W  A    A  R    R  N N  N  II  N N  N  G       !!!           |
|           W WW W  AAAAAA  RRRRR   N  N N  II  N  N N  G  GGG   !            |
|           WW  WW  A    A  R   R   N   NN  II  N   NN  G    G                |
|           W    W  A    A  R    R  N    N  II  N    N   GGGG   !!!           |
|                                                                             |
|      For optimal performance we recommend to set                            |
|        NCORE= 4 - approx SQRT( number of cores)                             |
|      NCORE specifies how many cores store one orbital (NPAR=cpu/NCORE).     |
|      This setting can  greatly improve the performance of VASP for DFT.     |
|      The default,   NCORE=1            might be grossly inefficient         |
|      on modern multi-core architectures or massively parallel machines.     |
|      Do your own testing !!!!                                               |
|      Unfortunately you need to use the default for GW and RPA calculations. |
|      (for HF NCORE is supported but not extensively tested yet)             |
|                                                                             |
 ----------------------------------------------------------------------------- 

 LDA part: xc-table for Pade appr. of Perdew
 POSCAR, INCAR and KPOINTS ok, starting setup
 FFT: planning ...
 WAVECAR not read
 entering main loop
       N       E                     dE             d eps       ncg     rms          rms(c)
DAV:   1     0.250496846021E+03    0.25050E+03   -0.18582E+04 35616   0.241E+03
DAV:   2    -0.116601617768E+02   -0.26216E+03   -0.25690E+03 35976   0.398E+02
DAV:   3    -0.253959641411E+02   -0.13736E+02   -0.13365E+02 37040   0.127E+02
DAV:   4    -0.256648154088E+02   -0.26885E+00   -0.26548E+00 39504   0.167E+01
DAV:   5    -0.256713288553E+02   -0.65134E-02   -0.65125E-02 42408   0.216E+00    0.203E+01
DAV:   6    -0.229389346492E+02    0.27324E+01   -0.47155E+01 35136   0.101E+02    0.120E+01
DAV:   7    -0.216995472766E+02    0.12394E+01   -0.82865E+00 35448   0.422E+01    0.373E+00
DAV:   8    -0.216636088777E+02    0.35938E-01   -0.15218E-01 45928   0.549E+00    0.163E+00
DAV:   9    -0.216599408612E+02    0.36680E-02   -0.34179E-02 41648   0.214E+00    0.600E-01
DAV:  10    -0.216592947669E+02    0.64609E-03   -0.18024E-02 67352   0.190E+00    0.201E-01
DAV:  11    -0.216599271010E+02   -0.63233E-03   -0.22083E-03 46392   0.554E-01    0.193E-01
DAV:  12    -0.216600316106E+02   -0.10451E-03   -0.16998E-04 45952   0.148E-01    0.200E-01
DAV:  13    -0.216592131265E+02    0.81848E-03   -0.12121E-03 56680   0.559E-01    0.238E-01
DAV:  14    -0.216571497266E+02    0.20634E-02   -0.63487E-03 60936   0.132E+00    0.340E-01
DAV:  15    -0.216600202396E+02   -0.28705E-02   -0.35316E-02 52504   0.352E+00    0.517E-02
DAV:  16    -0.216607528511E+02   -0.73261E-03   -0.35373E-03 51848   0.634E-01    0.404E-02
DAV:  17    -0.216609704637E+02   -0.21761E-03   -0.10576E-03 58384   0.391E-01    0.396E-02
DAV:  18    -0.216610906911E+02   -0.12023E-03   -0.12345E-03 57640   0.487E-01    0.235E-02
DAV:  19    -0.216611704929E+02   -0.79802E-04   -0.71527E-04 61776   0.337E-01    0.194E-02
DAV:  20    -0.216610977176E+02    0.72775E-04   -0.64238E-03 51736   0.122E+00    0.527E-02
DAV:  21    -0.216612850814E+02   -0.18736E-03   -0.30312E-04 39016   0.306E-01    0.581E-03
DAV:  22    -0.216612868792E+02   -0.17978E-05   -0.29890E-04 43512   0.259E-01    0.125E-02
DAV:  23    -0.216612912535E+02   -0.43743E-05   -0.23210E-04 44784   0.277E-01    0.137E-02
DAV:  24    -0.216612958231E+02   -0.45696E-05   -0.10356E-04 43096   0.177E-01    0.289E-03
DAV:  25    -0.216612971063E+02   -0.12832E-05   -0.36617E-06 24104   0.328E-02    0.242E-03
DAV:  26    -0.216612974233E+02   -0.31698E-06   -0.12449E-05 18504   0.544E-02    0.905E-04
DAV:  27    -0.216612978055E+02   -0.38223E-06   -0.23697E-06 18496   0.142E-02

 ----------------------------------------------------------------------------- 
|                                                                             |
|  ADVICE TO THIS USER RUNNING 'VASP/VAMP'   (HEAR YOUR MASTER'S VOICE ...):  |
|                                                                             |
|      Your highest band is occupied at some k-points! Unless you are         |
|      performing a calculation for an insulator or semiconductor, without    |
|      unoccupied bands, you have included TOO FEW BANDS!! Please increase    |
|      the parameter NBANDS in file INCAR to ensure that the highest band     |
|      is unoccupied at all k-points. It is always recommended to             |
|      include a few unoccupied bands to accelerate the convergence of        |
|      molecular dynamics runs (even for insulators or semiconductors).       |
|      Because the presence of unoccupied bands improves wavefunction         |
|      prediction, and helps to suppress 'band-crossings.'                    |
|                                                                             |
 ----------------------------------------------------------------------------- 

   1 F= -.21661298E+02 E0= -.21644221E+02  d E =-.512310E-01  mag=    -0.0000
