<?xml version="1.0" encoding="ISO-8859-1"?>
<modeling>
 <generator>
  <i name="program" type="string">vasp </i>
  <i name="version" type="string">5.4.4.18Apr17-6-g9f103f2a35  </i>
  <i name="subversion" type="string">(build Apr 28 2018 00:24:27) complex            parallel </i>
  <i name="platform" type="string">LinuxIFC </i>
  <i name="date" type="string">2021 06 12 </i>
  <i name="time" type="string">16:29:02 </i>
 </generator>
 <incar>
  <i type="string" name="PREC">accurate</i>
  <i type="string" name="ALGO"> Normal</i>
  <i type="int" name="ISPIN">     2</i>
  <i type="int" name="ICHARG">     2</i>
  <i type="int" name="NELM">   120</i>
  <i type="int" name="IBRION">    -1</i>
  <i name="EDIFF">      0.00000100</i>
  <i type="int" name="NSW">     0</i>
  <i type="int" name="ISIF">     3</i>
  <i name="SYMPREC">      0.00000001</i>
  <i name="ENCUT">    520.00000000</i>
  <v name="MAGMOM">      5.00000000</v>
  <i type="string" name="LREAL"> Auto</i>
  <i type="int" name="ISMEAR">    -5</i>
  <i name="SIGMA">      0.05000000</i>
  <i type="int" name="LMAXMIX">     4</i>
  <i type="logical" name="LWAVE"> F  </i>
  <i type="logical" name="LCHARG"> T  </i>
  <i type="logical" name="LVTOT"> F  </i>
  <i type="logical" name="LVHAR"> F  </i>
  <i type="int" name="LORBIT">    11</i>
  <i type="logical" name="LASPH"> T  </i>
  <i type="logical" name="LAECHG"> T  </i>
  <v type="int" name="KPOINT_BSE">    -1     0     0     0</v>
  <i type="int" name="NELM">   120</i>
  <i type="logical" name="LDAU"> T  </i>
  <v type="int" name="LDAUTYPE">     2</v>
  <v type="int" name="LDAUL">     2</v>
  <v name="LDAUU">      5.30000000</v>
  <v name="LDAUJ">      0.00000000</v>
  <i type="int" name="LDAUPRINT">     1</i>
  <i type="logical" name="LASPH"> T  </i>
 </incar>
 <structure name="primitive_cell" >
  <crystal>
   <varray name="basis" >
    <v>       1.42002600       1.42002600       1.42002600 </v>
    <v>       1.42002600      -1.42002600      -1.42002600 </v>
    <v>      -1.42002600       1.42002600      -1.42002600 </v>
   </varray>
   <i name="volume">     11.45378113 </i>
   <varray name="rec_basis" >
    <v>       0.35210623       0.35210623       0.00000000 </v>
    <v>       0.35210623       0.00000000      -0.35210623 </v>
    <v>       0.00000000       0.35210623      -0.35210623 </v>
   </varray>
  </crystal>
  <varray name="positions" >
   <v>       0.00000000       0.00000000       0.00000000 </v>
  </varray>
 </structure>
 <varray name="primitive_index" >
  <v type="int" >        1 </v>
 </varray>
 <kpoints>
  <generation param="Gamma">
   <v type="int" name="divisions">      18       18       18 </v>
   <v name="usershift">      0.00000000       0.00000000       0.00000000 </v>
   <v name="genvec1">      0.05555556       0.00000000       0.00000000 </v>
   <v name="genvec2">      0.00000000       0.05555556       0.00000000 </v>
   <v name="genvec3">      0.00000000       0.00000000       0.05555556 </v>
   <v name="shift">      0.00000000       0.00000000       0.00000000 </v>
  </generation>
  <varray name="kpointlist" >
   <v>       0.00000000       0.00000000       0.00000000 </v>
   <v>       0.05555556       0.00000000       0.00000000 </v>
   <v>       0.11111111       0.00000000       0.00000000 </v>
   <v>       0.16666667       0.00000000       0.00000000 </v>
   <v>       0.22222222       0.00000000       0.00000000 </v>
   <v>       0.27777778       0.00000000       0.00000000 </v>
   <v>       0.33333333       0.00000000       0.00000000 </v>
   <v>       0.38888889       0.00000000       0.00000000 </v>
   <v>       0.44444444       0.00000000       0.00000000 </v>
   <v>       0.50000000       0.00000000       0.00000000 </v>
   <v>       0.05555556       0.05555556       0.00000000 </v>
   <v>       0.11111111       0.05555556      -0.00000000 </v>
   <v>       0.16666667       0.05555556       0.00000000 </v>
   <v>       0.22222222       0.05555556      -0.00000000 </v>
   <v>       0.27777778       0.05555556       0.00000000 </v>
   <v>       0.33333333       0.05555556       0.00000000 </v>
   <v>       0.38888889       0.05555556      -0.00000000 </v>
   <v>       0.44444444       0.05555556      -0.00000000 </v>
   <v>       0.11111111       0.11111111       0.00000000 </v>
   <v>       0.16666667       0.11111111      -0.00000000 </v>
   <v>       0.22222222       0.11111111      -0.00000000 </v>
   <v>       0.27777778       0.11111111      -0.00000000 </v>
   <v>       0.33333333       0.11111111       0.00000000 </v>
   <v>       0.38888889       0.11111111       0.00000000 </v>
   <v>       0.44444444       0.11111111      -0.00000000 </v>
   <v>       0.16666667       0.16666667       0.00000000 </v>
   <v>       0.22222222       0.16666667       0.00000000 </v>
   <v>       0.27777778       0.16666667       0.00000000 </v>
   <v>       0.33333333       0.16666667      -0.00000000 </v>
   <v>       0.38888889       0.16666667      -0.00000000 </v>
   <v>       0.22222222       0.22222222       0.00000000 </v>
   <v>       0.27777778       0.22222222       0.00000000 </v>
   <v>       0.33333333       0.22222222      -0.00000000 </v>
   <v>       0.38888889       0.22222222      -0.00000000 </v>
   <v>       0.27777778       0.27777778       0.00000000 </v>
   <v>       0.33333333       0.27777778      -0.00000000 </v>
   <v>       0.33333333       0.33333333       0.00000000 </v>
   <v>       0.05555556       0.05555556       0.05555556 </v>
   <v>       0.11111111       0.05555556       0.05555556 </v>
   <v>       0.16666667       0.05555556       0.05555556 </v>
   <v>       0.22222222       0.05555556       0.05555556 </v>
   <v>       0.27777778       0.05555556       0.05555556 </v>
   <v>       0.33333333       0.05555556       0.05555556 </v>
   <v>       0.38888889       0.05555556       0.05555556 </v>
   <v>       0.44444444       0.05555556       0.05555556 </v>
   <v>      -0.05555556       0.05555556       0.05555556 </v>
   <v>       0.11111111       0.11111111       0.05555556 </v>
   <v>       0.16666667       0.11111111       0.05555556 </v>
   <v>       0.22222222       0.11111111       0.05555556 </v>
   <v>       0.27777778       0.11111111       0.05555556 </v>
   <v>       0.33333333       0.11111111       0.05555556 </v>
   <v>       0.38888889       0.11111111       0.05555556 </v>
   <v>      -0.11111111       0.11111111       0.05555556 </v>
   <v>       0.16666667       0.16666667       0.05555556 </v>
   <v>       0.22222222       0.16666667       0.05555556 </v>
   <v>       0.27777778       0.16666667       0.05555556 </v>
   <v>       0.33333333       0.16666667       0.05555556 </v>
   <v>       0.38888889       0.16666667       0.05555556 </v>
   <v>      -0.16666667       0.16666667       0.05555556 </v>
   <v>      -0.11111111       0.16666667       0.05555556 </v>
   <v>       0.22222222       0.22222222       0.05555556 </v>
   <v>       0.27777778       0.22222222       0.05555556 </v>
   <v>       0.33333333       0.22222222       0.05555556 </v>
   <v>      -0.22222222       0.22222222       0.05555556 </v>
   <v>      -0.16666667       0.22222222       0.05555556 </v>
   <v>       0.27777778       0.27777778       0.05555556 </v>
   <v>       0.33333333       0.27777778       0.05555556 </v>
   <v>      -0.27777778       0.27777778       0.05555556 </v>
   <v>      -0.22222222       0.27777778       0.05555556 </v>
   <v>      -0.16666667       0.27777778       0.05555556 </v>
   <v>      -0.33333333       0.33333333       0.05555556 </v>
   <v>      -0.27777778       0.33333333       0.05555556 </v>
   <v>      -0.22222222       0.33333333       0.05555556 </v>
   <v>      -0.38888889       0.38888889       0.05555556 </v>
   <v>      -0.33333333       0.38888889       0.05555556 </v>
   <v>      -0.27777778       0.38888889       0.05555556 </v>
   <v>      -0.22222222       0.38888889       0.05555556 </v>
   <v>      -0.44444444       0.44444444       0.05555556 </v>
   <v>      -0.38888889       0.44444444       0.05555556 </v>
   <v>      -0.33333333       0.44444444       0.05555556 </v>
   <v>      -0.27777778       0.44444444       0.05555556 </v>
   <v>       0.50000000       0.50000000       0.05555556 </v>
   <v>      -0.44444444       0.50000000       0.05555556 </v>
   <v>      -0.38888889       0.50000000       0.05555556 </v>
   <v>      -0.33333333       0.50000000       0.05555556 </v>
   <v>      -0.27777778       0.50000000       0.05555556 </v>
   <v>      -0.44444444      -0.44444444       0.05555556 </v>
   <v>      -0.38888889      -0.44444444       0.05555556 </v>
   <v>      -0.33333333      -0.44444444       0.05555556 </v>
   <v>      -0.38888889      -0.38888889       0.05555556 </v>
   <v>      -0.33333333      -0.38888889       0.05555556 </v>
   <v>       0.11111111       0.11111111       0.11111111 </v>
   <v>       0.16666667       0.11111111       0.11111111 </v>
   <v>       0.22222222       0.11111111       0.11111111 </v>
   <v>       0.27777778       0.11111111       0.11111111 </v>
   <v>       0.33333333       0.11111111       0.11111111 </v>
   <v>       0.38888889       0.11111111       0.11111111 </v>
   <v>      -0.11111111       0.11111111       0.11111111 </v>
   <v>       0.16666667       0.16666667       0.11111111 </v>
   <v>       0.22222222       0.16666667       0.11111111 </v>
   <v>       0.27777778       0.16666667       0.11111111 </v>
   <v>       0.33333333       0.16666667       0.11111111 </v>
   <v>      -0.16666667       0.16666667       0.11111111 </v>
   <v>       0.22222222       0.22222222       0.11111111 </v>
   <v>       0.27777778       0.22222222       0.11111111 </v>
   <v>       0.33333333       0.22222222       0.11111111 </v>
   <v>      -0.22222222       0.22222222       0.11111111 </v>
   <v>      -0.16666667       0.22222222       0.11111111 </v>
   <v>       0.27777778       0.27777778       0.11111111 </v>
   <v>      -0.27777778       0.27777778       0.11111111 </v>
   <v>      -0.22222222       0.27777778       0.11111111 </v>
   <v>      -0.33333333       0.33333333       0.11111111 </v>
   <v>      -0.27777778       0.33333333       0.11111111 </v>
   <v>      -0.22222222       0.33333333       0.11111111 </v>
   <v>      -0.38888889       0.38888889       0.11111111 </v>
   <v>      -0.33333333       0.38888889       0.11111111 </v>
   <v>      -0.27777778       0.38888889       0.11111111 </v>
   <v>      -0.44444444       0.44444444       0.11111111 </v>
   <v>      -0.38888889       0.44444444       0.11111111 </v>
   <v>      -0.33333333       0.44444444       0.11111111 </v>
   <v>      -0.27777778       0.44444444       0.11111111 </v>
   <v>       0.50000000       0.50000000       0.11111111 </v>
   <v>      -0.44444444       0.50000000       0.11111111 </v>
   <v>      -0.38888889       0.50000000       0.11111111 </v>
   <v>      -0.33333333       0.50000000       0.11111111 </v>
   <v>      -0.44444444      -0.44444444       0.11111111 </v>
   <v>      -0.38888889      -0.44444444       0.11111111 </v>
   <v>      -0.33333333      -0.44444444       0.11111111 </v>
   <v>      -0.38888889      -0.38888889       0.11111111 </v>
   <v>       0.16666667       0.16666667       0.16666667 </v>
   <v>       0.22222222       0.16666667       0.16666667 </v>
   <v>       0.27777778       0.16666667       0.16666667 </v>
   <v>       0.33333333       0.16666667       0.16666667 </v>
   <v>      -0.16666667       0.16666667       0.16666667 </v>
   <v>       0.22222222       0.22222222       0.16666667 </v>
   <v>       0.27777778       0.22222222       0.16666667 </v>
   <v>      -0.22222222       0.22222222       0.16666667 </v>
   <v>       0.27777778       0.27777778       0.16666667 </v>
   <v>      -0.27777778       0.27777778       0.16666667 </v>
   <v>      -0.22222222       0.27777778       0.16666667 </v>
   <v>      -0.33333333       0.33333333       0.16666667 </v>
   <v>      -0.27777778       0.33333333       0.16666667 </v>
   <v>      -0.38888889       0.38888889       0.16666667 </v>
   <v>      -0.33333333       0.38888889       0.16666667 </v>
   <v>      -0.27777778       0.38888889       0.16666667 </v>
   <v>      -0.44444444       0.44444444       0.16666667 </v>
   <v>      -0.38888889       0.44444444       0.16666667 </v>
   <v>      -0.33333333       0.44444444       0.16666667 </v>
   <v>       0.50000000       0.50000000       0.16666667 </v>
   <v>      -0.44444444       0.50000000       0.16666667 </v>
   <v>      -0.38888889       0.50000000       0.16666667 </v>
   <v>      -0.33333333       0.50000000       0.16666667 </v>
   <v>      -0.44444444      -0.44444444       0.16666667 </v>
   <v>      -0.38888889      -0.44444444       0.16666667 </v>
   <v>      -0.38888889      -0.38888889       0.16666667 </v>
   <v>       0.22222222       0.22222222       0.22222222 </v>
   <v>       0.27777778       0.22222222       0.22222222 </v>
   <v>      -0.22222222       0.22222222       0.22222222 </v>
   <v>      -0.27777778       0.27777778       0.22222222 </v>
   <v>      -0.33333333       0.33333333       0.22222222 </v>
   <v>      -0.27777778       0.33333333       0.22222222 </v>
   <v>      -0.38888889       0.38888889       0.22222222 </v>
   <v>      -0.33333333       0.38888889       0.22222222 </v>
   <v>      -0.44444444       0.44444444       0.22222222 </v>
   <v>      -0.38888889       0.44444444       0.22222222 </v>
   <v>      -0.33333333       0.44444444       0.22222222 </v>
   <v>       0.50000000       0.50000000       0.22222222 </v>
   <v>      -0.44444444       0.50000000       0.22222222 </v>
   <v>      -0.38888889       0.50000000       0.22222222 </v>
   <v>      -0.44444444      -0.44444444       0.22222222 </v>
   <v>      -0.38888889      -0.44444444       0.22222222 </v>
   <v>      -0.27777778       0.27777778       0.27777778 </v>
   <v>      -0.33333333       0.33333333       0.27777778 </v>
   <v>      -0.38888889       0.38888889       0.27777778 </v>
   <v>      -0.33333333       0.38888889       0.27777778 </v>
   <v>      -0.44444444       0.44444444       0.27777778 </v>
   <v>      -0.38888889       0.44444444       0.27777778 </v>
   <v>       0.50000000       0.50000000       0.27777778 </v>
   <v>      -0.44444444       0.50000000       0.27777778 </v>
   <v>      -0.38888889       0.50000000       0.27777778 </v>
   <v>      -0.44444444      -0.44444444       0.27777778 </v>
   <v>      -0.33333333       0.33333333       0.33333333 </v>
   <v>      -0.38888889       0.38888889       0.33333333 </v>
   <v>      -0.44444444       0.44444444       0.33333333 </v>
   <v>      -0.38888889       0.44444444       0.33333333 </v>
   <v>       0.50000000       0.50000000       0.33333333 </v>
   <v>      -0.44444444       0.50000000       0.33333333 </v>
   <v>      -0.44444444      -0.44444444       0.33333333 </v>
   <v>      -0.38888889       0.38888889       0.38888889 </v>
   <v>      -0.44444444       0.44444444       0.38888889 </v>
   <v>       0.50000000       0.50000000       0.38888889 </v>
   <v>      -0.44444444       0.50000000       0.38888889 </v>
   <v>      -0.44444444       0.44444444       0.44444444 </v>
   <v>       0.50000000       0.50000000       0.44444444 </v>
   <v>       0.50000000       0.50000000       0.50000000 </v>
  </varray>
  <varray name="weights" >
   <v>       0.00017147 </v>
   <v>       0.00205761 </v>
   <v>       0.00205761 </v>
   <v>       0.00205761 </v>
   <v>       0.00205761 </v>
   <v>       0.00205761 </v>
   <v>       0.00205761 </v>
   <v>       0.00205761 </v>
   <v>       0.00205761 </v>
   <v>       0.00102881 </v>
   <v>       0.00411523 </v>
   <v>       0.00823045 </v>
   <v>       0.00823045 </v>
   <v>       0.00823045 </v>
   <v>       0.00823045 </v>
   <v>       0.00823045 </v>
   <v>       0.00823045 </v>
   <v>       0.00823045 </v>
   <v>       0.00411523 </v>
   <v>       0.00823045 </v>
   <v>       0.00823045 </v>
   <v>       0.00823045 </v>
   <v>       0.00823045 </v>
   <v>       0.00823045 </v>
   <v>       0.00411523 </v>
   <v>       0.00411523 </v>
   <v>       0.00823045 </v>
   <v>       0.00823045 </v>
   <v>       0.00823045 </v>
   <v>       0.00823045 </v>
   <v>       0.00411523 </v>
   <v>       0.00823045 </v>
   <v>       0.00823045 </v>
   <v>       0.00411523 </v>
   <v>       0.00411523 </v>
   <v>       0.00823045 </v>
   <v>       0.00137174 </v>
   <v>       0.00137174 </v>
   <v>       0.00411523 </v>
   <v>       0.00411523 </v>
   <v>       0.00411523 </v>
   <v>       0.00411523 </v>
   <v>       0.00411523 </v>
   <v>       0.00411523 </v>
   <v>       0.00205761 </v>
   <v>       0.00102881 </v>
   <v>       0.00411523 </v>
   <v>       0.00823045 </v>
   <v>       0.00823045 </v>
   <v>       0.00823045 </v>
   <v>       0.00823045 </v>
   <v>       0.00823045 </v>
   <v>       0.00411523 </v>
   <v>       0.00411523 </v>
   <v>       0.00823045 </v>
   <v>       0.00823045 </v>
   <v>       0.00823045 </v>
   <v>       0.00411523 </v>
   <v>       0.00411523 </v>
   <v>       0.00411523 </v>
   <v>       0.00411523 </v>
   <v>       0.00823045 </v>
   <v>       0.00823045 </v>
   <v>       0.00411523 </v>
   <v>       0.00823045 </v>
   <v>       0.00411523 </v>
   <v>       0.00411523 </v>
   <v>       0.00411523 </v>
   <v>       0.00823045 </v>
   <v>       0.00411523 </v>
   <v>       0.00411523 </v>
   <v>       0.00823045 </v>
   <v>       0.00823045 </v>
   <v>       0.00411523 </v>
   <v>       0.00823045 </v>
   <v>       0.00823045 </v>
   <v>       0.00411523 </v>
   <v>       0.00411523 </v>
   <v>       0.00823045 </v>
   <v>       0.00823045 </v>
   <v>       0.00823045 </v>
   <v>       0.00205761 </v>
   <v>       0.00823045 </v>
   <v>       0.00823045 </v>
   <v>       0.00823045 </v>
   <v>       0.00411523 </v>
   <v>       0.00411523 </v>
   <v>       0.00823045 </v>
   <v>       0.00823045 </v>
   <v>       0.00411523 </v>
   <v>       0.00411523 </v>
   <v>       0.00137174 </v>
   <v>       0.00411523 </v>
   <v>       0.00411523 </v>
   <v>       0.00411523 </v>
   <v>       0.00411523 </v>
   <v>       0.00205761 </v>
   <v>       0.00102881 </v>
   <v>       0.00411523 </v>
   <v>       0.00823045 </v>
   <v>       0.00823045 </v>
   <v>       0.00823045 </v>
   <v>       0.00411523 </v>
   <v>       0.00411523 </v>
   <v>       0.00823045 </v>
   <v>       0.00411523 </v>
   <v>       0.00411523 </v>
   <v>       0.00411523 </v>
   <v>       0.00411523 </v>
   <v>       0.00411523 </v>
   <v>       0.00823045 </v>
   <v>       0.00411523 </v>
   <v>       0.00823045 </v>
   <v>       0.00411523 </v>
   <v>       0.00411523 </v>
   <v>       0.00823045 </v>
   <v>       0.00823045 </v>
   <v>       0.00411523 </v>
   <v>       0.00823045 </v>
   <v>       0.00823045 </v>
   <v>       0.00411523 </v>
   <v>       0.00205761 </v>
   <v>       0.00823045 </v>
   <v>       0.00823045 </v>
   <v>       0.00823045 </v>
   <v>       0.00411523 </v>
   <v>       0.00823045 </v>
   <v>       0.00411523 </v>
   <v>       0.00411523 </v>
   <v>       0.00137174 </v>
   <v>       0.00411523 </v>
   <v>       0.00411523 </v>
   <v>       0.00205761 </v>
   <v>       0.00102881 </v>
   <v>       0.00411523 </v>
   <v>       0.00823045 </v>
   <v>       0.00411523 </v>
   <v>       0.00137174 </v>
   <v>       0.00411523 </v>
   <v>       0.00411523 </v>
   <v>       0.00411523 </v>
   <v>       0.00823045 </v>
   <v>       0.00411523 </v>
   <v>       0.00823045 </v>
   <v>       0.00411523 </v>
   <v>       0.00411523 </v>
   <v>       0.00823045 </v>
   <v>       0.00823045 </v>
   <v>       0.00205761 </v>
   <v>       0.00823045 </v>
   <v>       0.00823045 </v>
   <v>       0.00411523 </v>
   <v>       0.00411523 </v>
   <v>       0.00823045 </v>
   <v>       0.00137174 </v>
   <v>       0.00137174 </v>
   <v>       0.00205761 </v>
   <v>       0.00102881 </v>
   <v>       0.00411523 </v>
   <v>       0.00411523 </v>
   <v>       0.00411523 </v>
   <v>       0.00411523 </v>
   <v>       0.00823045 </v>
   <v>       0.00411523 </v>
   <v>       0.00823045 </v>
   <v>       0.00411523 </v>
   <v>       0.00205761 </v>
   <v>       0.00823045 </v>
   <v>       0.00823045 </v>
   <v>       0.00411523 </v>
   <v>       0.00411523 </v>
   <v>       0.00102881 </v>
   <v>       0.00411523 </v>
   <v>       0.00411523 </v>
   <v>       0.00411523 </v>
   <v>       0.00411523 </v>
   <v>       0.00823045 </v>
   <v>       0.00205761 </v>
   <v>       0.00823045 </v>
   <v>       0.00411523 </v>
   <v>       0.00411523 </v>
   <v>       0.00102881 </v>
   <v>       0.00411523 </v>
   <v>       0.00411523 </v>
   <v>       0.00411523 </v>
   <v>       0.00205761 </v>
   <v>       0.00823045 </v>
   <v>       0.00137174 </v>
   <v>       0.00102881 </v>
   <v>       0.00411523 </v>
   <v>       0.00205761 </v>
   <v>       0.00411523 </v>
   <v>       0.00102881 </v>
   <v>       0.00205761 </v>
   <v>       0.00017147 </v>
  </varray>
  <varray name="tetrahedronlist"  type="int" >
   <v type="int" >        4        1        2        2       11 </v>
   <v type="int" >       12        2        2       11       11 </v>
   <v type="int" >        4        2       11       11       38 </v>
   <v type="int" >        4        2        3       11       12 </v>
   <v type="int" >        4        2       11       11       12 </v>
   <v type="int" >       12       11       11       12       38 </v>
   <v type="int" >       12        3       11       12       12 </v>
   <v type="int" >        8       11       12       12       39 </v>
   <v type="int" >        8       11       12       38       39 </v>
   <v type="int" >        4        3        4       12       13 </v>
   <v type="int" >        4        3       12       12       13 </v>
   <v type="int" >       12       12       12       13       39 </v>
   <v type="int" >       12        4       12       13       13 </v>
   <v type="int" >        4       12       13       13       40 </v>
   <v type="int" >        4       12       13       39       40 </v>
   <v type="int" >        4        4        5       13       14 </v>
   <v type="int" >        4        4       13       13       14 </v>
   <v type="int" >        8       13       13       14       40 </v>
   <v type="int" >       12        5       13       14       14 </v>
   <v type="int" >        4       13       14       14       41 </v>
   <v type="int" >        4       13       14       40       41 </v>
   <v type="int" >        4        5        6       14       15 </v>
   <v type="int" >        4        5       14       14       15 </v>
   <v type="int" >        8       14       14       15       41 </v>
   <v type="int" >       12        6       14       15       15 </v>
   <v type="int" >        4       14       15       15       42 </v>
   <v type="int" >        4       14       15       41       42 </v>
   <v type="int" >        4        6        7       15       16 </v>
   <v type="int" >        4        6       15       15       16 </v>
   <v type="int" >        8       15       15       16       42 </v>
   <v type="int" >       12        7       15       16       16 </v>
   <v type="int" >        4       15       16       16       43 </v>
   <v type="int" >        4       15       16       42       43 </v>
   <v type="int" >        4        7        8       16       17 </v>
   <v type="int" >        4        7       16       16       17 </v>
   <v type="int" >        8       16       16       17       43 </v>
   <v type="int" >       12        8       16       17       17 </v>
   <v type="int" >        4       16       17       17       44 </v>
   <v type="int" >        4       16       17       43       44 </v>
   <v type="int" >        4        8        9       17       18 </v>
   <v type="int" >        4        8       17       17       18 </v>
   <v type="int" >        8       17       17       18       44 </v>
   <v type="int" >       12        9       17       18       18 </v>
   <v type="int" >        4       17       18       18       45 </v>
   <v type="int" >        4       17       18       44       45 </v>
   <v type="int" >        8        9       10       18       18 </v>
   <v type="int" >        8        9       18       18       18 </v>
   <v type="int" >        8       18       18       18       45 </v>
   <v type="int" >       16       10       18       18       18 </v>
   <v type="int" >        4       18       18       18       44 </v>
   <v type="int" >        4       18       18       44       45 </v>
   <v type="int" >        4        9       10       17       18 </v>
   <v type="int" >        4       10       17       18       18 </v>
   <v type="int" >        8       17       18       18       44 </v>
   <v type="int" >       12        9       17       17       18 </v>
   <v type="int" >        4       17       17       18       43 </v>
   <v type="int" >        4       17       18       43       44 </v>
   <v type="int" >        4        8        9       16       17 </v>
   <v type="int" >        4        9       16       17       17 </v>
   <v type="int" >        8       16       17       17       43 </v>
   <v type="int" >       12        8       16       16       17 </v>
   <v type="int" >        4       16       16       17       42 </v>
   <v type="int" >        4       16       17       42       43 </v>
   <v type="int" >        4        7        8       15       16 </v>
   <v type="int" >        4        8       15       16       16 </v>
   <v type="int" >        8       15       16       16       42 </v>
   <v type="int" >       12        7       15       15       16 </v>
   <v type="int" >        4       15       15       16       41 </v>
   <v type="int" >        4       15       16       41       42 </v>
   <v type="int" >        4        6        7       14       15 </v>
   <v type="int" >        4        7       14       15       15 </v>
   <v type="int" >        8       14       15       15       41 </v>
   <v type="int" >       12        6       14       14       15 </v>
   <v type="int" >        4       14       14       15       40 </v>
   <v type="int" >        4       14       15       40       41 </v>
   <v type="int" >        4        5        6       13       14 </v>
   <v type="int" >        4        6       13       14       14 </v>
   <v type="int" >        8       13       14       14       40 </v>
   <v type="int" >       12        5       13       13       14 </v>
   <v type="int" >        4       13       13       14       39 </v>
   <v type="int" >        4       13       14       39       40 </v>
   <v type="int" >        4        4        5       12       13 </v>
   <v type="int" >        4        5       12       13       13 </v>
   <v type="int" >        8       12       13       13       39 </v>
   <v type="int" >       12        4       12       12       13 </v>
   <v type="int" >        4       12       12       13       38 </v>
   <v type="int" >        4       12       13       38       39 </v>
   <v type="int" >        4        3        4       11       12 </v>
   <v type="int" >        4        4       11       12       12 </v>
   <v type="int" >       16       11       12       12       38 </v>
   <v type="int" >       12        3       11       11       12 </v>
   <v type="int" >        4       11       11       11       12 </v>
   <v type="int" >        4        2        2        3       11 </v>
   <v type="int" >       12        2        3       11       11 </v>
   <v type="int" >        8        2       11       11       11 </v>
   <v type="int" >        8        2        2        2       11 </v>
   <v type="int" >       12        2        2       11       46 </v>
   <v type="int" >       12        2       11       11       46 </v>
   <v type="int" >        8        1        2        2        2 </v>
   <v type="int" >        4        2        2        2        2 </v>
   <v type="int" >        4        2        2        2       46 </v>
   <v type="int" >        4       11       12       19       38 </v>
   <v type="int" >       12       12       19       38       39 </v>
   <v type="int" >        4       19       38       39       47 </v>
   <v type="int" >        4       12       13       20       39 </v>
   <v type="int" >        4       12       19       20       39 </v>
   <v type="int" >        8       19       20       39       47 </v>
   <v type="int" >       12       13       20       39       40 </v>
   <v type="int" >        4       20       39       40       48 </v>
   <v type="int" >        4       20       39       47       48 </v>
   <v type="int" >        4       13       14       21       40 </v>
   <v type="int" >        4       13       20       21       40 </v>
   <v type="int" >        8       20       21       40       48 </v>
   <v type="int" >       12       14       21       40       41 </v>
   <v type="int" >        4       21       40       41       49 </v>
   <v type="int" >        4       21       40       48       49 </v>
   <v type="int" >        4       14       15       22       41 </v>
   <v type="int" >        4       14       21       22       41 </v>
   <v type="int" >        8       21       22       41       49 </v>
   <v type="int" >       12       15       22       41       42 </v>
   <v type="int" >        4       22       41       42       50 </v>
   <v type="int" >        4       22       41       49       50 </v>
   <v type="int" >        4       15       16       23       42 </v>
   <v type="int" >        4       15       22       23       42 </v>
   <v type="int" >        8       22       23       42       50 </v>
   <v type="int" >       12       16       23       42       43 </v>
   <v type="int" >        4       23       42       43       51 </v>
   <v type="int" >        4       23       42       50       51 </v>
   <v type="int" >        4       16       17       24       43 </v>
   <v type="int" >        4       16       23       24       43 </v>
   <v type="int" >        8       23       24       43       51 </v>
   <v type="int" >       12       17       24       43       44 </v>
   <v type="int" >        4       24       43       44       52 </v>
   <v type="int" >        4       24       43       51       52 </v>
   <v type="int" >        4       17       18       25       44 </v>
   <v type="int" >        4       17       24       25       44 </v>
   <v type="int" >        8       24       25       44       52 </v>
   <v type="int" >       16       18       25       44       45 </v>
   <v type="int" >       16       25       44       45       52 </v>
   <v type="int" >        8       25       44       52       52 </v>
   <v type="int" >        8       18       18       24       45 </v>
   <v type="int" >       12       18       24       25       45 </v>
   <v type="int" >       12       24       25       45       52 </v>
   <v type="int" >       12       18       24       44       45 </v>
   <v type="int" >        4       24       44       45       51 </v>
   <v type="int" >        4       24       45       51       52 </v>
   <v type="int" >        4       17       18       23       44 </v>
   <v type="int" >        4       18       23       24       44 </v>
   <v type="int" >        8       23       24       44       51 </v>
   <v type="int" >       12       17       23       43       44 </v>
   <v type="int" >        4       23       43       44       50 </v>
   <v type="int" >        4       23       44       50       51 </v>
   <v type="int" >        4       16       17       22       43 </v>
   <v type="int" >        4       17       22       23       43 </v>
   <v type="int" >        8       22       23       43       50 </v>
   <v type="int" >       12       16       22       42       43 </v>
   <v type="int" >        4       22       42       43       49 </v>
   <v type="int" >        4       22       43       49       50 </v>
   <v type="int" >        4       15       16       21       42 </v>
   <v type="int" >        4       16       21       22       42 </v>
   <v type="int" >        8       21       22       42       49 </v>
   <v type="int" >       12       15       21       41       42 </v>
   <v type="int" >        4       21       41       42       48 </v>
   <v type="int" >        4       21       42       48       49 </v>
   <v type="int" >        4       14       15       20       41 </v>
   <v type="int" >        4       15       20       21       41 </v>
   <v type="int" >        8       20       21       41       48 </v>
   <v type="int" >       12       14       20       40       41 </v>
   <v type="int" >        4       20       40       41       47 </v>
   <v type="int" >        4       20       41       47       48 </v>
   <v type="int" >        4       13       14       19       40 </v>
   <v type="int" >        4       14       19       20       40 </v>
   <v type="int" >       12       19       20       40       47 </v>
   <v type="int" >       12       13       19       39       40 </v>
   <v type="int" >        4       19       39       39       40 </v>
   <v type="int" >       16       19       39       40       47 </v>
   <v type="int" >       16       12       13       19       39 </v>
   <v type="int" >        8       12       19       39       39 </v>
   <v type="int" >       16       12       12       38       39 </v>
   <v type="int" >        4       12       12       39       39 </v>
   <v type="int" >       12        3       11       12       38 </v>
   <v type="int" >        8        3       12       12       38 </v>
   <v type="int" >        8        3       11       11       38 </v>
   <v type="int" >        4        3       11       38       53 </v>
   <v type="int" >        4        3       12       38       53 </v>
   <v type="int" >        4        3       11       11       11 </v>
   <v type="int" >        4        3       11       11       53 </v>
   <v type="int" >        8       11       11       46       53 </v>
   <v type="int" >        4       11       11       53       53 </v>
   <v type="int" >        4        2        2        3       46 </v>
   <v type="int" >       16        2        3       11       46 </v>
   <v type="int" >       12        3       11       46       53 </v>
   <v type="int" >        4        3       11       12       46 </v>
   <v type="int" >        4        3       12       46       53 </v>
   <v type="int" >        4       19       20       26       47 </v>
   <v type="int" >        8       20       26       47       48 </v>
   <v type="int" >        4       26       47       48       54 </v>
   <v type="int" >        4       20       21       27       48 </v>
   <v type="int" >        4       20       26       27       48 </v>
   <v type="int" >        8       26       27       48       54 </v>
   <v type="int" >        8       21       27       48       49 </v>
   <v type="int" >        4       27       48       49       55 </v>
   <v type="int" >        4       27       48       54       55 </v>
   <v type="int" >        4       21       22       28       49 </v>
   <v type="int" >        4       21       27       28       49 </v>
   <v type="int" >        8       27       28       49       55 </v>
   <v type="int" >        8       22       28       49       50 </v>
   <v type="int" >        4       28       49       50       56 </v>
   <v type="int" >        4       28       49       55       56 </v>
   <v type="int" >        4       22       23       29       50 </v>
   <v type="int" >        4       22       28       29       50 </v>
   <v type="int" >        8       28       29       50       56 </v>
   <v type="int" >        8       23       29       50       51 </v>
   <v type="int" >        4       29       50       51       57 </v>
   <v type="int" >        4       29       50       56       57 </v>
   <v type="int" >        4       23       24       30       51 </v>
   <v type="int" >        4       23       29       30       51 </v>
   <v type="int" >        8       29       30       51       57 </v>
   <v type="int" >        8       24       30       51       52 </v>
   <v type="int" >        4       30       51       52       58 </v>
   <v type="int" >        4       30       51       57       58 </v>
   <v type="int" >        8       24       25       30       52 </v>
   <v type="int" >        4       24       30       30       52 </v>
   <v type="int" >        8       30       30       52       58 </v>
   <v type="int" >        8       25       30       52       52 </v>
   <v type="int" >        4       30       52       52       57 </v>
   <v type="int" >        8       30       52       57       58 </v>
   <v type="int" >        4       24       25       29       52 </v>
   <v type="int" >        4       25       29       30       52 </v>
   <v type="int" >        8       29       30       52       57 </v>
   <v type="int" >        8       24       29       51       52 </v>
   <v type="int" >        4       29       51       52       56 </v>
   <v type="int" >        4       29       52       56       57 </v>
   <v type="int" >        4       23       24       28       51 </v>
   <v type="int" >        4       24       28       29       51 </v>
   <v type="int" >        8       28       29       51       56 </v>
   <v type="int" >        8       23       28       50       51 </v>
   <v type="int" >        4       28       50       51       55 </v>
   <v type="int" >        4       28       51       55       56 </v>
   <v type="int" >        4       22       23       27       50 </v>
   <v type="int" >        4       23       27       28       50 </v>
   <v type="int" >        8       27       28       50       55 </v>
   <v type="int" >        8       22       27       49       50 </v>
   <v type="int" >        4       27       49       50       54 </v>
   <v type="int" >        4       27       50       54       55 </v>
   <v type="int" >        4       21       22       26       49 </v>
   <v type="int" >        4       22       26       27       49 </v>
   <v type="int" >       12       26       27       49       54 </v>
   <v type="int" >        8       21       26       48       49 </v>
   <v type="int" >        4       26       48       48       49 </v>
   <v type="int" >       12       26       48       49       54 </v>
   <v type="int" >        4       20       20       21       48 </v>
   <v type="int" >        8       20       21       26       48 </v>
   <v type="int" >        8       20       26       48       48 </v>
   <v type="int" >        8       20       20       47       48 </v>
   <v type="int" >       16       20       40       47       48 </v>
   <v type="int" >        4       20       40       48       48 </v>
   <v type="int" >       12       13       19       20       47 </v>
   <v type="int" >        4       13       20       20       47 </v>
   <v type="int" >        8       13       20       40       47 </v>
   <v type="int" >       12       13       19       39       47 </v>
   <v type="int" >        4       13       13       39       47 </v>
   <v type="int" >        4       13       13       40       47 </v>
   <v type="int" >        4        4       12       19       39 </v>
   <v type="int" >        4        4       13       19       39 </v>
   <v type="int" >        4        4       13       13       39 </v>
   <v type="int" >        4        4       12       12       39 </v>
   <v type="int" >        4        4       12       39       59 </v>
   <v type="int" >        4        4       13       39       59 </v>
   <v type="int" >        4        3       12       12       12 </v>
   <v type="int" >        4        4       12       12       12 </v>
   <v type="int" >        4        4       12       12       59 </v>
   <v type="int" >        8        3       12       12       53 </v>
   <v type="int" >       12       12       12       53       60 </v>
   <v type="int" >        4       12       12       59       60 </v>
   <v type="int" >       16        3       11       12       53 </v>
   <v type="int" >        8       11       12       53       53 </v>
   <v type="int" >        4       12       53       53       59 </v>
   <v type="int" >        8       12       53       59       60 </v>
   <v type="int" >        4        3        4       11       53 </v>
   <v type="int" >        4        4       11       12       53 </v>
   <v type="int" >        8        4       12       53       59 </v>
   <v type="int" >       12        3        4       12       53 </v>
   <v type="int" >        4        4       12       13       53 </v>
   <v type="int" >        4        4       13       53       59 </v>
   <v type="int" >        4       26       27       31       54 </v>
   <v type="int" >        8       27       31       54       55 </v>
   <v type="int" >        4       31       54       55       61 </v>
   <v type="int" >        4       27       28       32       55 </v>
   <v type="int" >        4       27       31       32       55 </v>
   <v type="int" >        8       31       32       55       61 </v>
   <v type="int" >        8       28       32       55       56 </v>
   <v type="int" >        4       32       55       56       62 </v>
   <v type="int" >        4       32       55       61       62 </v>
   <v type="int" >        4       28       29       33       56 </v>
   <v type="int" >        4       28       32       33       56 </v>
   <v type="int" >        8       32       33       56       62 </v>
   <v type="int" >        8       29       33       56       57 </v>
   <v type="int" >        4       33       56       57       63 </v>
   <v type="int" >        4       33       56       62       63 </v>
   <v type="int" >        4       29       30       34       57 </v>
   <v type="int" >        4       29       33       34       57 </v>
   <v type="int" >        8       33       34       57       63 </v>
   <v type="int" >       12       30       34       57       58 </v>
   <v type="int" >       12       34       57       58       63 </v>
   <v type="int" >        4       34       57       63       63 </v>
   <v type="int" >        4       30       30       33       58 </v>
   <v type="int" >       12       30       33       34       58 </v>
   <v type="int" >       12       33       34       58       63 </v>
   <v type="int" >        8       30       33       57       58 </v>
   <v type="int" >        4       33       57       58       62 </v>
   <v type="int" >        4       33       58       62       63 </v>
   <v type="int" >        4       29       30       32       57 </v>
   <v type="int" >        4       30       32       33       57 </v>
   <v type="int" >        8       32       33       57       62 </v>
   <v type="int" >        8       29       32       56       57 </v>
   <v type="int" >        4       32       56       57       61 </v>
   <v type="int" >        4       32       57       61       62 </v>
   <v type="int" >        4       28       29       31       56 </v>
   <v type="int" >        4       29       31       32       56 </v>
   <v type="int" >       12       31       32       56       61 </v>
   <v type="int" >        8       28       31       55       56 </v>
   <v type="int" >        4       31       55       55       56 </v>
   <v type="int" >       12       31       55       56       61 </v>
   <v type="int" >        4       27       27       28       55 </v>
   <v type="int" >        8       27       28       31       55 </v>
   <v type="int" >        8       27       31       55       55 </v>
   <v type="int" >        8       27       27       54       55 </v>
   <v type="int" >        8       27       49       54       55 </v>
   <v type="int" >        4       27       49       55       55 </v>
   <v type="int" >       12       21       26       27       54 </v>
   <v type="int" >        4       21       27       27       54 </v>
   <v type="int" >        8       21       27       49       54 </v>
   <v type="int" >       12       21       26       48       54 </v>
   <v type="int" >        4       21       41       48       54 </v>
   <v type="int" >        4       21       41       49       54 </v>
   <v type="int" >        4       14       20       26       48 </v>
   <v type="int" >        4       14       21       26       48 </v>
   <v type="int" >        8       14       21       41       48 </v>
   <v type="int" >        8       14       20       40       48 </v>
   <v type="int" >        4       14       14       40       48 </v>
   <v type="int" >        4       14       14       41       48 </v>
   <v type="int" >        4        5       13       20       40 </v>
   <v type="int" >        4        5       14       20       40 </v>
   <v type="int" >        4        5       14       14       40 </v>
   <v type="int" >        4        5       13       13       40 </v>
   <v type="int" >        4        5       13       40       64 </v>
   <v type="int" >        4        5       14       40       64 </v>
   <v type="int" >        4        4       13       13       13 </v>
   <v type="int" >        4        5       13       13       13 </v>
   <v type="int" >        4        5       13       13       64 </v>
   <v type="int" >        4        4       13       13       59 </v>
   <v type="int" >        4       13       13       59       65 </v>
   <v type="int" >        4       13       13       64       65 </v>
   <v type="int" >        4        4       12       19       59 </v>
   <v type="int" >        4        4       13       19       59 </v>
   <v type="int" >        8       13       19       59       65 </v>
   <v type="int" >       12       12       19       59       60 </v>
   <v type="int" >       12       19       59       60       65 </v>
   <v type="int" >        4       19       59       65       65 </v>
   <v type="int" >        4       12       12       13       60 </v>
   <v type="int" >       12       12       13       19       60 </v>
   <v type="int" >       12       13       19       60       65 </v>
   <v type="int" >        8       12       13       59       60 </v>
   <v type="int" >        4       13       59       60       64 </v>
   <v type="int" >        4       13       60       64       65 </v>
   <v type="int" >        4        4        5       12       59 </v>
   <v type="int" >        4        5       12       13       59 </v>
   <v type="int" >        8        5       13       59       64 </v>
   <v type="int" >       12        4        5       13       59 </v>
   <v type="int" >        4        5       13       14       59 </v>
   <v type="int" >        4        5       14       59       64 </v>
   <v type="int" >        4       31       32       35       61 </v>
   <v type="int" >        8       32       35       61       62 </v>
   <v type="int" >        4       35       61       62       66 </v>
   <v type="int" >        4       32       33       36       62 </v>
   <v type="int" >        4       32       35       36       62 </v>
   <v type="int" >        8       35       36       62       66 </v>
   <v type="int" >        8       33       36       62       63 </v>
   <v type="int" >        4       36       62       63       67 </v>
   <v type="int" >        4       36       62       66       67 </v>
   <v type="int" >        8       33       34       36       63 </v>
   <v type="int" >        4       33       36       36       63 </v>
   <v type="int" >       12       36       36       63       67 </v>
   <v type="int" >        8       34       36       63       63 </v>
   <v type="int" >        4       36       63       63       66 </v>
   <v type="int" >       16       36       63       66       67 </v>
   <v type="int" >        4       33       34       35       63 </v>
   <v type="int" >        4       34       35       36       63 </v>
   <v type="int" >       12       35       36       63       66 </v>
   <v type="int" >        8       33       35       62       63 </v>
   <v type="int" >        4       35       62       62       63 </v>
   <v type="int" >       12       35       62       63       66 </v>
   <v type="int" >        4       32       32       33       62 </v>
   <v type="int" >        8       32       33       35       62 </v>
   <v type="int" >        8       32       35       62       62 </v>
   <v type="int" >        8       32       32       61       62 </v>
   <v type="int" >        8       32       56       61       62 </v>
   <v type="int" >        4       32       56       62       62 </v>
   <v type="int" >       12       28       31       32       61 </v>
   <v type="int" >        4       28       32       32       61 </v>
   <v type="int" >        8       28       32       56       61 </v>
   <v type="int" >       12       28       31       55       61 </v>
   <v type="int" >        4       28       50       55       61 </v>
   <v type="int" >        4       28       50       56       61 </v>
   <v type="int" >        4       22       27       31       55 </v>
   <v type="int" >        4       22       28       31       55 </v>
   <v type="int" >        8       22       28       50       55 </v>
   <v type="int" >        8       22       27       49       55 </v>
   <v type="int" >        4       22       42       49       55 </v>
   <v type="int" >        4       22       42       50       55 </v>
   <v type="int" >        4       15       21       27       49 </v>
   <v type="int" >        4       15       22       27       49 </v>
   <v type="int" >        8       15       22       42       49 </v>
   <v type="int" >        8       15       21       41       49 </v>
   <v type="int" >        4       15       15       41       49 </v>
   <v type="int" >        4       15       15       42       49 </v>
   <v type="int" >        4        6       14       21       41 </v>
   <v type="int" >        4        6       15       21       41 </v>
   <v type="int" >        4        6       15       15       41 </v>
   <v type="int" >        4        6       14       14       41 </v>
   <v type="int" >        4        6       14       41       68 </v>
   <v type="int" >        4        6       15       41       68 </v>
   <v type="int" >        4        5       14       14       14 </v>
   <v type="int" >        4        6       14       14       14 </v>
   <v type="int" >        4        6       14       14       68 </v>
   <v type="int" >        4        5       14       14       64 </v>
   <v type="int" >        4       14       14       64       69 </v>
   <v type="int" >        4       14       14       68       69 </v>
   <v type="int" >        4        5       13       20       64 </v>
   <v type="int" >        4        5       14       20       64 </v>
   <v type="int" >        8       14       20       64       69 </v>
   <v type="int" >        8       13       20       64       65 </v>
   <v type="int" >        4       20       64       65       70 </v>
   <v type="int" >        4       20       64       69       70 </v>
   <v type="int" >        8       13       19       20       65 </v>
   <v type="int" >        4       13       20       20       65 </v>
   <v type="int" >        8       20       20       65       70 </v>
   <v type="int" >        8       19       20       65       65 </v>
   <v type="int" >        4       20       65       65       69 </v>
   <v type="int" >        8       20       65       69       70 </v>
   <v type="int" >        4       13       14       19       65 </v>
   <v type="int" >        4       14       19       20       65 </v>
   <v type="int" >        8       14       20       65       69 </v>
   <v type="int" >        8       13       14       64       65 </v>
   <v type="int" >        4       14       64       65       68 </v>
   <v type="int" >        4       14       65       68       69 </v>
   <v type="int" >        4        5        6       13       64 </v>
   <v type="int" >        4        6       13       14       64 </v>
   <v type="int" >        8        6       14       64       68 </v>
   <v type="int" >       12        5        6       14       64 </v>
   <v type="int" >        4        6       14       15       64 </v>
   <v type="int" >        4        6       15       64       68 </v>
   <v type="int" >        4       35       36       37       66 </v>
   <v type="int" >       12       36       37       66       67 </v>
   <v type="int" >        8       37       66       67       67 </v>
   <v type="int" >        4       36       36       36       67 </v>
   <v type="int" >       16       36       36       37       67 </v>
   <v type="int" >       12       36       37       67       67 </v>
   <v type="int" >        8       36       36       66       67 </v>
   <v type="int" >        4       36       63       67       67 </v>
   <v type="int" >       12       33       35       36       66 </v>
   <v type="int" >        4       33       36       36       66 </v>
   <v type="int" >        8       33       36       63       66 </v>
   <v type="int" >       12       33       35       62       66 </v>
   <v type="int" >        4       33       57       62       66 </v>
   <v type="int" >        4       33       57       63       66 </v>
   <v type="int" >        4       29       32       35       62 </v>
   <v type="int" >        4       29       33       35       62 </v>
   <v type="int" >        8       29       33       57       62 </v>
   <v type="int" >        8       29       32       56       62 </v>
   <v type="int" >        4       29       51       56       62 </v>
   <v type="int" >        4       29       51       57       62 </v>
   <v type="int" >        4       23       28       32       56 </v>
   <v type="int" >        4       23       29       32       56 </v>
   <v type="int" >        8       23       29       51       56 </v>
   <v type="int" >        8       23       28       50       56 </v>
   <v type="int" >        4       23       43       50       56 </v>
   <v type="int" >        4       23       43       51       56 </v>
   <v type="int" >        4       16       22       28       50 </v>
   <v type="int" >        4       16       23       28       50 </v>
   <v type="int" >        8       16       23       43       50 </v>
   <v type="int" >        8       16       22       42       50 </v>
   <v type="int" >        4       16       16       42       50 </v>
   <v type="int" >        4       16       16       43       50 </v>
   <v type="int" >        4        7       15       22       42 </v>
   <v type="int" >        4        7       16       22       42 </v>
   <v type="int" >        4        7       16       16       42 </v>
   <v type="int" >        4        7       15       15       42 </v>
   <v type="int" >        4        7       15       42       71 </v>
   <v type="int" >        4        7       16       42       71 </v>
   <v type="int" >        4        6       15       15       15 </v>
   <v type="int" >        4        7       15       15       15 </v>
   <v type="int" >        4        7       15       15       71 </v>
   <v type="int" >        4        6       15       15       68 </v>
   <v type="int" >        4       15       15       68       72 </v>
   <v type="int" >        4       15       15       71       72 </v>
   <v type="int" >        4        6       14       21       68 </v>
   <v type="int" >        4        6       15       21       68 </v>
   <v type="int" >        8       15       21       68       72 </v>
   <v type="int" >        8       14       21       68       69 </v>
   <v type="int" >        4       21       68       69       73 </v>
   <v type="int" >        4       21       68       72       73 </v>
   <v type="int" >        4       14       20       26       69 </v>
   <v type="int" >        4       14       21       26       69 </v>
   <v type="int" >        8       21       26       69       73 </v>
   <v type="int" >       12       20       26       69       70 </v>
   <v type="int" >       12       26       69       70       73 </v>
   <v type="int" >        4       26       69       73       73 </v>
   <v type="int" >        4       20       20       21       70 </v>
   <v type="int" >       12       20       21       26       70 </v>
   <v type="int" >       12       21       26       70       73 </v>
   <v type="int" >        8       20       21       69       70 </v>
   <v type="int" >        4       21       69       70       72 </v>
   <v type="int" >        4       21       70       72       73 </v>
   <v type="int" >        4       14       15       20       69 </v>
   <v type="int" >        4       15       20       21       69 </v>
   <v type="int" >        8       15       21       69       72 </v>
   <v type="int" >        8       14       15       68       69 </v>
   <v type="int" >        4       15       68       69       71 </v>
   <v type="int" >        4       15       69       71       72 </v>
   <v type="int" >        4        6        7       14       68 </v>
   <v type="int" >        4        7       14       15       68 </v>
   <v type="int" >        8        7       15       68       71 </v>
   <v type="int" >       12        6        7       15       68 </v>
   <v type="int" >        4        7       15       16       68 </v>
   <v type="int" >        4        7       16       68       71 </v>
   <v type="int" >        4       34       36       37       67 </v>
   <v type="int" >        8       34       36       63       67 </v>
   <v type="int" >        4       34       58       63       67 </v>
   <v type="int" >        4       30       33       36       63 </v>
   <v type="int" >        4       30       34       36       63 </v>
   <v type="int" >        8       30       34       58       63 </v>
   <v type="int" >        8       30       33       57       63 </v>
   <v type="int" >        4       30       52       57       63 </v>
   <v type="int" >        4       30       52       58       63 </v>
   <v type="int" >        4       24       29       33       57 </v>
   <v type="int" >        4       24       30       33       57 </v>
   <v type="int" >        8       24       30       52       57 </v>
   <v type="int" >        8       24       29       51       57 </v>
   <v type="int" >        4       24       44       51       57 </v>
   <v type="int" >        4       24       44       52       57 </v>
   <v type="int" >        4       17       23       29       51 </v>
   <v type="int" >        4       17       24       29       51 </v>
   <v type="int" >        8       17       24       44       51 </v>
   <v type="int" >        8       17       23       43       51 </v>
   <v type="int" >        4       17       17       43       51 </v>
   <v type="int" >        4       17       17       44       51 </v>
   <v type="int" >        4        8       16       23       43 </v>
   <v type="int" >        4        8       17       23       43 </v>
   <v type="int" >        4        8       17       17       43 </v>
   <v type="int" >        4        8       16       16       43 </v>
   <v type="int" >        4        8       16       43       74 </v>
   <v type="int" >        4        8       17       43       74 </v>
   <v type="int" >        4        7       16       16       16 </v>
   <v type="int" >        4        8       16       16       16 </v>
   <v type="int" >        4        8       16       16       74 </v>
   <v type="int" >        4        7       16       16       71 </v>
   <v type="int" >        4       16       16       71       75 </v>
   <v type="int" >        4       16       16       74       75 </v>
   <v type="int" >        4        7       15       22       71 </v>
   <v type="int" >        4        7       16       22       71 </v>
   <v type="int" >        8       16       22       71       75 </v>
   <v type="int" >        8       15       22       71       72 </v>
   <v type="int" >        4       22       71       72       76 </v>
   <v type="int" >        4       22       71       75       76 </v>
   <v type="int" >        4       15       21       27       72 </v>
   <v type="int" >        4       15       22       27       72 </v>
   <v type="int" >        8       22       27       72       76 </v>
   <v type="int" >        8       21       27       72       73 </v>
   <v type="int" >        4       27       72       73       77 </v>
   <v type="int" >        4       27       72       76       77 </v>
   <v type="int" >        8       21       26       27       73 </v>
   <v type="int" >        4       21       27       27       73 </v>
   <v type="int" >        8       27       27       73       77 </v>
   <v type="int" >        8       26       27       73       73 </v>
   <v type="int" >        4       27       73       73       76 </v>
   <v type="int" >        8       27       73       76       77 </v>
   <v type="int" >        4       21       22       26       73 </v>
   <v type="int" >        4       22       26       27       73 </v>
   <v type="int" >        8       22       27       73       76 </v>
   <v type="int" >        8       21       22       72       73 </v>
   <v type="int" >        4       22       72       73       75 </v>
   <v type="int" >        4       22       73       75       76 </v>
   <v type="int" >        4       15       16       21       72 </v>
   <v type="int" >        4       16       21       22       72 </v>
   <v type="int" >        8       16       22       72       75 </v>
   <v type="int" >        8       15       16       71       72 </v>
   <v type="int" >        4       16       71       72       74 </v>
   <v type="int" >        4       16       72       74       75 </v>
   <v type="int" >        4        7        8       15       71 </v>
   <v type="int" >        4        8       15       16       71 </v>
   <v type="int" >        8        8       16       71       74 </v>
   <v type="int" >       12        7        8       16       71 </v>
   <v type="int" >        4        8       16       17       71 </v>
   <v type="int" >        4        8       17       71       74 </v>
   <v type="int" >        4       25       30       34       58 </v>
   <v type="int" >        8       25       30       52       58 </v>
   <v type="int" >        4       25       45       52       58 </v>
   <v type="int" >        4       18       24       30       52 </v>
   <v type="int" >        4       18       25       30       52 </v>
   <v type="int" >        8       18       25       45       52 </v>
   <v type="int" >        8       18       24       44       52 </v>
   <v type="int" >        4       18       18       44       52 </v>
   <v type="int" >        8       18       18       45       52 </v>
   <v type="int" >        4        9       17       24       44 </v>
   <v type="int" >        4        9       18       24       44 </v>
   <v type="int" >        4        9       18       18       44 </v>
   <v type="int" >        4        9       17       17       44 </v>
   <v type="int" >        4        9       17       44       78 </v>
   <v type="int" >        4        9       18       44       78 </v>
   <v type="int" >        4        8       17       17       17 </v>
   <v type="int" >        4        9       17       17       17 </v>
   <v type="int" >        4        9       17       17       78 </v>
   <v type="int" >        4        8       17       17       74 </v>
   <v type="int" >        4       17       17       74       79 </v>
   <v type="int" >        4       17       17       78       79 </v>
   <v type="int" >        4        8       16       23       74 </v>
   <v type="int" >        4        8       17       23       74 </v>
   <v type="int" >        8       17       23       74       79 </v>
   <v type="int" >        8       16       23       74       75 </v>
   <v type="int" >        4       23       74       75       80 </v>
   <v type="int" >        4       23       74       79       80 </v>
   <v type="int" >        4       16       22       28       75 </v>
   <v type="int" >        4       16       23       28       75 </v>
   <v type="int" >        8       23       28       75       80 </v>
   <v type="int" >        8       22       28       75       76 </v>
   <v type="int" >        4       28       75       76       81 </v>
   <v type="int" >        4       28       75       80       81 </v>
   <v type="int" >        4       22       27       31       76 </v>
   <v type="int" >        4       22       28       31       76 </v>
   <v type="int" >        8       28       31       76       81 </v>
   <v type="int" >       12       27       31       76       77 </v>
   <v type="int" >       12       31       76       77       81 </v>
   <v type="int" >        4       31       76       81       81 </v>
   <v type="int" >        4       27       27       28       77 </v>
   <v type="int" >       12       27       28       31       77 </v>
   <v type="int" >       12       28       31       77       81 </v>
   <v type="int" >        8       27       28       76       77 </v>
   <v type="int" >        4       28       76       77       80 </v>
   <v type="int" >        4       28       77       80       81 </v>
   <v type="int" >        4       22       23       27       76 </v>
   <v type="int" >        4       23       27       28       76 </v>
   <v type="int" >        8       23       28       76       80 </v>
   <v type="int" >        8       22       23       75       76 </v>
   <v type="int" >        4       23       75       76       79 </v>
   <v type="int" >        4       23       76       79       80 </v>
   <v type="int" >        4       16       17       22       75 </v>
   <v type="int" >        4       17       22       23       75 </v>
   <v type="int" >        8       17       23       75       79 </v>
   <v type="int" >        8       16       17       74       75 </v>
   <v type="int" >        4       17       74       75       78 </v>
   <v type="int" >        4       17       75       78       79 </v>
   <v type="int" >        4        8        9       16       74 </v>
   <v type="int" >        4        9       16       17       74 </v>
   <v type="int" >        8        9       17       74       78 </v>
   <v type="int" >       12        8        9       17       74 </v>
   <v type="int" >        4        9       17       18       74 </v>
   <v type="int" >        4        9       18       74       78 </v>
   <v type="int" >        4       10       18       25       45 </v>
   <v type="int" >        8       10       18       18       45 </v>
   <v type="int" >        4       10       18       45       82 </v>
   <v type="int" >        8       10       18       18       82 </v>
   <v type="int" >        4        9       18       18       78 </v>
   <v type="int" >        8       18       18       78       83 </v>
   <v type="int" >       12       18       18       82       83 </v>
   <v type="int" >        4        9       17       24       78 </v>
   <v type="int" >        4        9       18       24       78 </v>
   <v type="int" >        8       18       24       78       83 </v>
   <v type="int" >        8       17       24       78       79 </v>
   <v type="int" >        4       24       78       79       84 </v>
   <v type="int" >        4       24       78       83       84 </v>
   <v type="int" >        4       17       23       29       79 </v>
   <v type="int" >        4       17       24       29       79 </v>
   <v type="int" >        8       24       29       79       84 </v>
   <v type="int" >        8       23       29       79       80 </v>
   <v type="int" >        4       29       79       80       85 </v>
   <v type="int" >        4       29       79       84       85 </v>
   <v type="int" >        4       23       28       32       80 </v>
   <v type="int" >        4       23       29       32       80 </v>
   <v type="int" >        8       29       32       80       85 </v>
   <v type="int" >        8       28       32       80       81 </v>
   <v type="int" >        4       32       80       81       86 </v>
   <v type="int" >        4       32       80       85       86 </v>
   <v type="int" >        8       28       31       32       81 </v>
   <v type="int" >        4       28       32       32       81 </v>
   <v type="int" >        8       32       32       81       86 </v>
   <v type="int" >        8       31       32       81       81 </v>
   <v type="int" >        4       32       81       81       85 </v>
   <v type="int" >        8       32       81       85       86 </v>
   <v type="int" >        4       28       29       31       81 </v>
   <v type="int" >        4       29       31       32       81 </v>
   <v type="int" >        8       29       32       81       85 </v>
   <v type="int" >        8       28       29       80       81 </v>
   <v type="int" >        4       29       80       81       84 </v>
   <v type="int" >        4       29       81       84       85 </v>
   <v type="int" >        4       23       24       28       80 </v>
   <v type="int" >        4       24       28       29       80 </v>
   <v type="int" >        8       24       29       80       84 </v>
   <v type="int" >        8       23       24       79       80 </v>
   <v type="int" >        4       24       79       80       83 </v>
   <v type="int" >        4       24       80       83       84 </v>
   <v type="int" >        4       17       18       23       79 </v>
   <v type="int" >        4       18       23       24       79 </v>
   <v type="int" >        8       18       24       79       83 </v>
   <v type="int" >        8       17       18       78       79 </v>
   <v type="int" >        4       18       78       79       82 </v>
   <v type="int" >        4       18       79       82       83 </v>
   <v type="int" >        4        9       10       17       78 </v>
   <v type="int" >        4       10       17       18       78 </v>
   <v type="int" >       12       10       18       78       82 </v>
   <v type="int" >       12        9       10       18       78 </v>
   <v type="int" >        8       10       18       18       78 </v>
   <v type="int" >        4       10       18       25       82 </v>
   <v type="int" >        8       18       25       82       83 </v>
   <v type="int" >        4       25       82       83       87 </v>
   <v type="int" >        4       18       24       30       83 </v>
   <v type="int" >        4       18       25       30       83 </v>
   <v type="int" >        8       25       30       83       87 </v>
   <v type="int" >        8       24       30       83       84 </v>
   <v type="int" >        4       30       83       84       88 </v>
   <v type="int" >        4       30       83       87       88 </v>
   <v type="int" >        4       24       29       33       84 </v>
   <v type="int" >        4       24       30       33       84 </v>
   <v type="int" >        8       30       33       84       88 </v>
   <v type="int" >        8       29       33       84       85 </v>
   <v type="int" >        4       33       84       85       89 </v>
   <v type="int" >        4       33       84       88       89 </v>
   <v type="int" >        4       29       32       35       85 </v>
   <v type="int" >        4       29       33       35       85 </v>
   <v type="int" >        8       33       35       85       89 </v>
   <v type="int" >       12       32       35       85       86 </v>
   <v type="int" >       12       35       85       86       89 </v>
   <v type="int" >        4       35       85       89       89 </v>
   <v type="int" >        4       32       32       33       86 </v>
   <v type="int" >       12       32       33       35       86 </v>
   <v type="int" >       12       33       35       86       89 </v>
   <v type="int" >        8       32       33       85       86 </v>
   <v type="int" >        4       33       85       86       88 </v>
   <v type="int" >        4       33       86       88       89 </v>
   <v type="int" >        4       29       30       32       85 </v>
   <v type="int" >        4       30       32       33       85 </v>
   <v type="int" >        8       30       33       85       88 </v>
   <v type="int" >        8       29       30       84       85 </v>
   <v type="int" >        4       30       84       85       87 </v>
   <v type="int" >        4       30       85       87       88 </v>
   <v type="int" >        4       24       25       29       84 </v>
   <v type="int" >        4       25       29       30       84 </v>
   <v type="int" >       12       25       30       84       87 </v>
   <v type="int" >        8       24       25       83       84 </v>
   <v type="int" >        4       25       83       83       84 </v>
   <v type="int" >       12       25       83       84       87 </v>
   <v type="int" >        4       18       18       24       83 </v>
   <v type="int" >        8       18       24       25       83 </v>
   <v type="int" >        8       18       25       83       83 </v>
   <v type="int" >        8       18       78       82       83 </v>
   <v type="int" >        8       18       78       83       83 </v>
   <v type="int" >       16        9       10       18       82 </v>
   <v type="int" >        8        9       18       18       82 </v>
   <v type="int" >        8        9       18       78       82 </v>
   <v type="int" >        4        9       17       18       82 </v>
   <v type="int" >        4        9       17       78       82 </v>
   <v type="int" >        4       25       30       34       87 </v>
   <v type="int" >        8       30       34       87       88 </v>
   <v type="int" >        4       34       87       88       90 </v>
   <v type="int" >        4       30       33       36       88 </v>
   <v type="int" >        4       30       34       36       88 </v>
   <v type="int" >        8       34       36       88       90 </v>
   <v type="int" >        8       33       36       88       89 </v>
   <v type="int" >        4       36       88       89       91 </v>
   <v type="int" >        4       36       88       90       91 </v>
   <v type="int" >        8       33       35       36       89 </v>
   <v type="int" >        4       33       36       36       89 </v>
   <v type="int" >       12       36       36       89       91 </v>
   <v type="int" >        8       35       36       89       89 </v>
   <v type="int" >        4       36       89       89       90 </v>
   <v type="int" >       16       36       89       90       91 </v>
   <v type="int" >        4       33       34       35       89 </v>
   <v type="int" >        4       34       35       36       89 </v>
   <v type="int" >       12       34       36       89       90 </v>
   <v type="int" >        8       33       34       88       89 </v>
   <v type="int" >        4       34       88       88       89 </v>
   <v type="int" >       12       34       88       89       90 </v>
   <v type="int" >        4       30       30       33       88 </v>
   <v type="int" >        8       30       33       34       88 </v>
   <v type="int" >        8       30       34       88       88 </v>
   <v type="int" >        8       30       30       87       88 </v>
   <v type="int" >        8       30       84       87       88 </v>
   <v type="int" >        4       30       84       88       88 </v>
   <v type="int" >       12       24       25       30       87 </v>
   <v type="int" >        4       24       30       30       87 </v>
   <v type="int" >        8       24       30       84       87 </v>
   <v type="int" >       12       24       25       83       87 </v>
   <v type="int" >        4       24       79       83       87 </v>
   <v type="int" >        4       24       79       84       87 </v>
   <v type="int" >        4       17       18       25       83 </v>
   <v type="int" >        4       17       24       25       83 </v>
   <v type="int" >        8       17       24       79       83 </v>
   <v type="int" >        8       17       18       78       83 </v>
   <v type="int" >        4       17       74       78       83 </v>
   <v type="int" >        4       17       74       79       83 </v>
   <v type="int" >        4        8        9       18       78 </v>
   <v type="int" >        4        8       17       18       78 </v>
   <v type="int" >        8        8       17       74       78 </v>
   <v type="int" >       12        8        9       17       78 </v>
   <v type="int" >        4        8       16       17       78 </v>
   <v type="int" >        4        8       16       74       78 </v>
   <v type="int" >        4       34       36       37       90 </v>
   <v type="int" >       12       36       37       90       91 </v>
   <v type="int" >        8       37       90       91       91 </v>
   <v type="int" >        4       36       36       36       91 </v>
   <v type="int" >       16       36       36       37       91 </v>
   <v type="int" >       12       36       37       91       91 </v>
   <v type="int" >        8       36       36       90       91 </v>
   <v type="int" >        4       36       89       91       91 </v>
   <v type="int" >       12       33       34       36       90 </v>
   <v type="int" >        4       33       36       36       90 </v>
   <v type="int" >        8       33       36       89       90 </v>
   <v type="int" >       12       33       34       88       90 </v>
   <v type="int" >        4       33       85       88       90 </v>
   <v type="int" >        4       33       85       89       90 </v>
   <v type="int" >        4       29       30       34       88 </v>
   <v type="int" >        4       29       33       34       88 </v>
   <v type="int" >        8       29       33       85       88 </v>
   <v type="int" >        8       29       30       84       88 </v>
   <v type="int" >        4       29       80       84       88 </v>
   <v type="int" >        4       29       80       85       88 </v>
   <v type="int" >        4       23       24       30       84 </v>
   <v type="int" >        4       23       29       30       84 </v>
   <v type="int" >        8       23       29       80       84 </v>
   <v type="int" >        8       23       24       79       84 </v>
   <v type="int" >        4       23       75       79       84 </v>
   <v type="int" >        4       23       75       80       84 </v>
   <v type="int" >        4       16       17       24       79 </v>
   <v type="int" >        4       16       23       24       79 </v>
   <v type="int" >        8       16       23       75       79 </v>
   <v type="int" >        8       16       17       74       79 </v>
   <v type="int" >        4       16       71       74       79 </v>
   <v type="int" >        4       16       71       75       79 </v>
   <v type="int" >        4        7        8       17       74 </v>
   <v type="int" >        4        7       16       17       74 </v>
   <v type="int" >        8        7       16       71       74 </v>
   <v type="int" >       12        7        8       16       74 </v>
   <v type="int" >        4        7       15       16       74 </v>
   <v type="int" >        4        7       15       71       74 </v>
   <v type="int" >        4       35       36       37       91 </v>
   <v type="int" >        8       35       36       89       91 </v>
   <v type="int" >        4       35       86       89       91 </v>
   <v type="int" >        4       32       33       36       89 </v>
   <v type="int" >        4       32       35       36       89 </v>
   <v type="int" >        8       32       35       86       89 </v>
   <v type="int" >        8       32       33       85       89 </v>
   <v type="int" >        4       32       81       85       89 </v>
[...]
       </set>
      </set>
      <set comment="kpoint 186">
       <set comment="band 1">
        <r>  0.0000  0.4965  0.4965  0.0000  0.0000  0.0000  0.0000  0.0000  0.0000 </r>
       </set>
       <set comment="band 2">
        <r>  0.0000  0.0000  0.0000  0.9947  0.0000  0.0000  0.0000  0.0000  0.0000 </r>
       </set>
       <set comment="band 3">
        <r>  0.0001  0.4975  0.4975  0.0000  0.0000  0.0001  0.0000  0.0000  0.0000 </r>
       </set>
       <set comment="band 4">
        <r>  0.0000  0.0380  0.0380  0.0000  0.0000  0.0000  0.4891  0.0000  0.1632 </r>
       </set>
       <set comment="band 5">
        <r>  0.0083  0.0143  0.0143  0.0000  0.0000  0.0342  0.1704  0.0000  0.5106 </r>
       </set>
       <set comment="band 6">
        <r>  0.0000  0.0000  0.0000  0.0406  0.4452  0.0000  0.0000  0.4452  0.0000 </r>
       </set>
       <set comment="band 7">
        <r>  0.0227  0.0197  0.0197  0.0000  0.0000  0.7913  0.0168  0.0000  0.0504 </r>
       </set>
       <set comment="band 8">
        <r>  0.0000  0.0000  0.0000  0.0000  0.4943  0.0000  0.0000  0.4943  0.0000 </r>
       </set>
       <set comment="band 9">
        <r>  0.0000  0.2644  0.2644  0.0000  0.0000  0.0000  0.1939  0.0000  0.0646 </r>
       </set>
       <set comment="band 10">
        <r>  0.2090  0.1563  0.1563  0.0000  0.0000  0.1930  0.0186  0.0000  0.0558 </r>
       </set>
       <set comment="band 11">
        <r>  0.0000  0.0000  0.0000  0.6659  0.0648  0.0000  0.0000  0.0648  0.0000 </r>
       </set>
       <set comment="band 12">
        <r>  0.0813  0.0010  0.0010  0.0000  0.0000  0.0025  0.1285  0.0000  0.3854 </r>
       </set>
       <set comment="band 13">
        <r>  0.0000  0.0474  0.0474  0.0000  0.0000  0.0000  0.3349  0.0000  0.1116 </r>
       </set>
       <set comment="band 14">
        <r>  0.4212  0.2369  0.2369  0.0000  0.0000  0.0100  0.0113  0.0000  0.0340 </r>
       </set>
      </set>
      <set comment="kpoint 187">
       <set comment="band 1">
        <r>  0.0000  0.3844  0.5906  0.0182  0.0000  0.0000  0.0000  0.0000  0.0000 </r>
       </set>
       <set comment="band 2">
        <r>  0.0000  0.2076  0.0468  0.7398  0.0000  0.0000  0.0000  0.0000  0.0000 </r>
       </set>
       <set comment="band 3">
        <r>  0.0001  0.4022  0.3564  0.2364  0.0000  0.0000  0.0000  0.0000  0.0000 </r>
       </set>
       <set comment="band 4">
        <r>  0.0035  0.0057  0.0521  0.0012  0.0008  0.0034  0.6657  0.0010  0.0004 </r>
       </set>
       <set comment="band 5">
        <r>  0.0008  0.0175  0.0001  0.0045  0.0000  0.0099  0.0005  0.0018  0.7195 </r>
       </set>
       <set comment="band 6">
        <r>  0.0122  0.0128  0.0071  0.0228  0.2683  0.2655  0.0034  0.3295  0.0017 </r>
       </set>
       <set comment="band 7">
        <r>  0.0032  0.0164  0.0043  0.0149  0.0655  0.5765  0.0044  0.2408  0.0214 </r>
       </set>
       <set comment="band 8">
        <r>  0.0005  0.0011  0.0041  0.0002  0.6156  0.0123  0.0071  0.3406  0.0006 </r>
       </set>
       <set comment="band 9">
        <r>  0.0635  0.0481  0.4263  0.0037  0.0038  0.0239  0.1941  0.0109  0.0033 </r>
       </set>
       <set comment="band 10">
        <r>  0.0933  0.4694  0.0075  0.0099  0.0050  0.1197  0.0028  0.0004  0.0718 </r>
       </set>
       <set comment="band 11">
        <r>  0.0374  0.0011  0.0000  0.6008  0.0343  0.0007  0.0054  0.0827  0.0173 </r>
       </set>
       <set comment="band 12">
        <r>  0.0311  0.0039  0.0000  0.0302  0.0003  0.0023  0.0681  0.0014  0.4724 </r>
       </set>
       <set comment="band 13">
        <r>  0.0327  0.0599  0.0142  0.0034  0.0006  0.0004  0.3863  0.0001  0.0765 </r>
       </set>
       <set comment="band 14">
        <r>  0.4802  0.1059  0.2621  0.0258  0.0001  0.0045  0.0345  0.0007  0.0044 </r>
       </set>
      </set>
      <set comment="kpoint 188">
       <set comment="band 1">
        <r>  0.0000  0.1966  0.1364  0.6606  0.0000  0.0000  0.0000  0.0000  0.0000 </r>
       </set>
       <set comment="band 2">
        <r>  0.0000  0.4658  0.5260  0.0018  0.0000  0.0000  0.0000  0.0000  0.0000 </r>
       </set>
       <set comment="band 3">
        <r>  0.0001  0.3317  0.3317  0.3317  0.0000  0.0000  0.0000  0.0000  0.0000 </r>
       </set>
       <set comment="band 4">
        <r>  0.0000  0.0163  0.0001  0.0183  0.0000  0.0036  0.0017  0.0032  0.7036 </r>
       </set>
       <set comment="band 5">
        <r>  0.0000  0.0068  0.0230  0.0048  0.0045  0.0010  0.7036  0.0013  0.0017 </r>
       </set>
       <set comment="band 6">
        <r>  0.0155  0.0145  0.0145  0.0145  0.2873  0.2873  0.0000  0.2873  0.0000 </r>
       </set>
       <set comment="band 7">
        <r>  0.0000  0.0100  0.0000  0.0095  0.0004  0.4526  0.0000  0.4795  0.0174 </r>
       </set>
       <set comment="band 8">
        <r>  0.0000  0.0030  0.0130  0.0035  0.6213  0.1690  0.0174  0.1422  0.0000 </r>
       </set>
       <set comment="band 9">
        <r>  0.0000  0.1441  0.0574  0.3834  0.0056  0.0371  0.0204  0.0139  0.1182 </r>
       </set>
       <set comment="band 10">
        <r>  0.0000  0.2458  0.3325  0.0065  0.0322  0.0006  0.1182  0.0238  0.0204 </r>
       </set>
       <set comment="band 11">
        <r>  0.1956  0.1369  0.1369  0.1370  0.0498  0.0498  0.0000  0.0498  0.0000 </r>
       </set>
       <set comment="band 12">
        <r>  0.0000  0.0281  0.0007  0.0374  0.0000  0.0017  0.0078  0.0012  0.5167 </r>
       </set>
       <set comment="band 13">
        <r>  0.0000  0.0160  0.0435  0.0067  0.0019  0.0003  0.5167  0.0007  0.0078 </r>
       </set>
       <set comment="band 14">
        <r>  0.5527  0.1214  0.1214  0.1214  0.0016  0.0016  0.0000  0.0016  0.0000 </r>
       </set>
      </set>
      <set comment="kpoint 189">
       <set comment="band 1">
        <r>  0.0001  0.0000  0.9935  0.0000  0.0000  0.0000  0.0000  0.0000  0.0000 </r>
       </set>
       <set comment="band 2">
        <r>  0.0000  0.0296  0.0000  0.9650  0.0000  0.0000  0.0000  0.0001  0.0000 </r>
       </set>
       <set comment="band 3">
        <r>  0.0000  0.9650  0.0000  0.0296  0.0000  0.0001  0.0000  0.0000  0.0000 </r>
       </set>
       <set comment="band 4">
        <r>  0.0191  0.0000  0.0911  0.0000  0.0000  0.0000  0.6003  0.0000  0.0000 </r>
       </set>
       <set comment="band 5">
        <r>  0.0000  0.0000  0.0000  0.0000  0.0000  0.0000  0.0000  0.0000  0.7667 </r>
       </set>
       <set comment="band 6">
        <r>  0.0000  0.0137  0.0000  0.0338  0.0000  0.2558  0.0000  0.6337  0.0000 </r>
       </set>
       <set comment="band 7">
        <r>  0.0000  0.0338  0.0000  0.0137  0.0000  0.6337  0.0000  0.2558  0.0000 </r>
       </set>
       <set comment="band 8">
        <r>  0.0000  0.0000  0.0000  0.0000  0.9792  0.0000  0.0000  0.0000  0.0000 </r>
       </set>
       <set comment="band 9">
        <r>  0.1444  0.0000  0.3466  0.0000  0.0000  0.0000  0.2870  0.0000  0.0000 </r>
       </set>
       <set comment="band 10">
        <r>  0.0000  0.3107  0.0000  0.3455  0.0000  0.0664  0.0000  0.0739  0.0000 </r>
       </set>
       <set comment="band 11">
        <r>  0.0000  0.3455  0.0000  0.3107  0.0000  0.0739  0.0000  0.0664  0.0000 </r>
       </set>
       <set comment="band 12">
        <r>  0.0000  0.0000  0.0000  0.0000  0.0000  0.0000  0.0000  0.0000  0.6315 </r>
       </set>
       <set comment="band 13">
        <r>  0.2230  0.0000  0.0056  0.0000  0.0000  0.0000  0.3485  0.0000  0.0000 </r>
       </set>
       <set comment="band 14">
        <r>  0.3751  0.0000  0.3754  0.0000  0.0000  0.0000  0.1225  0.0000  0.0000 </r>
       </set>
      </set>
      <set comment="kpoint 190">
       <set comment="band 1">
        <r>  0.0000  0.2925  0.7010  0.0000  0.0000  0.0000  0.0000  0.0000  0.0000 </r>
       </set>
       <set comment="band 2">
        <r>  0.0000  0.0000  0.0000  0.9944  0.0000  0.0000  0.0000  0.0000  0.0000 </r>
       </set>
       <set comment="band 3">
        <r>  0.0000  0.7018  0.2927  0.0000  0.0000  0.0000  0.0000  0.0000  0.0000 </r>
       </set>
       <set comment="band 4">
        <r>  0.0054  0.0013  0.0521  0.0000  0.0000  0.0009  0.6733  0.0000  0.0000 </r>
       </set>
       <set comment="band 5">
        <r>  0.0001  0.0045  0.0000  0.0000  0.0000  0.0023  0.0000  0.0000  0.7538 </r>
       </set>
       <set comment="band 6">
        <r>  0.0000  0.0000  0.0000  0.0366  0.2037  0.0000  0.0000  0.7072  0.0000 </r>
       </set>
       <set comment="band 7">
        <r>  0.0040  0.0352  0.0041  0.0000  0.0000  0.8942  0.0029  0.0000  0.0047 </r>
       </set>
       <set comment="band 8">
        <r>  0.0000  0.0000  0.0000  0.0015  0.7724  0.0000  0.0000  0.2098  0.0000 </r>
       </set>
       <set comment="band 9">
        <r>  0.1022  0.0085  0.4511  0.0000  0.0000  0.0110  0.1838  0.0000  0.0002 </r>
       </set>
       <set comment="band 10">
        <r>  0.0292  0.6134  0.0002  0.0000  0.0000  0.1026  0.0034  0.0000  0.0226 </r>
       </set>
       <set comment="band 11">
        <r>  0.0000  0.0000  0.0000  0.6713  0.0087  0.0000  0.0000  0.0933  0.0000 </r>
       </set>
       <set comment="band 12">
        <r>  0.0111  0.0062  0.0001  0.0000  0.0000  0.0010  0.0177  0.0000  0.6012 </r>
       </set>
       <set comment="band 13">
        <r>  0.1132  0.0237  0.0024  0.0000  0.0000  0.0002  0.4347  0.0000  0.0220 </r>
       </set>
       <set comment="band 14">
        <r>  0.5128  0.0249  0.2668  0.0000  0.0000  0.0013  0.0659  0.0000  0.0005 </r>
       </set>
      </set>
      <set comment="kpoint 191">
       <set comment="band 1">
        <r>  0.0000  0.4967  0.4967  0.0000  0.0000  0.0000  0.0000  0.0000  0.0000 </r>
       </set>
       <set comment="band 2">
        <r>  0.0000  0.0000  0.0000  0.9943  0.0000  0.0000  0.0000  0.0000  0.0000 </r>
       </set>
       <set comment="band 3">
        <r>  0.0000  0.4972  0.4972  0.0000  0.0000  0.0000  0.0000  0.0000  0.0000 </r>
       </set>
       <set comment="band 4">
        <r>  0.0000  0.0171  0.0171  0.0000  0.0000  0.0000  0.5323  0.0000  0.1776 </r>
       </set>
       <set comment="band 5">
        <r>  0.0013  0.0061  0.0061  0.0000  0.0000  0.0053  0.1842  0.0000  0.5521 </r>
       </set>
       <set comment="band 6">
        <r>  0.0000  0.0000  0.0000  0.0321  0.4593  0.0000  0.0000  0.4594  0.0000 </r>
       </set>
       <set comment="band 7">
        <r>  0.0077  0.0178  0.0178  0.0000  0.0000  0.8910  0.0032  0.0000  0.0096 </r>
       </set>
       <set comment="band 8">
        <r>  0.0000  0.0000  0.0000  0.0000  0.4939  0.0000  0.0000  0.4939  0.0000 </r>
       </set>
       <set comment="band 9">
        <r>  0.0000  0.3065  0.3065  0.0000  0.0000  0.0000  0.1077  0.0000  0.0359 </r>
       </set>
       <set comment="band 10">
        <r>  0.1286  0.2375  0.2375  0.0000  0.0000  0.1076  0.0113  0.0000  0.0338 </r>
       </set>
       <set comment="band 11">
        <r>  0.0000  0.0000  0.0000  0.6793  0.0420  0.0000  0.0000  0.0420  0.0000 </r>
       </set>
       <set comment="band 12">
        <r>  0.0372  0.0010  0.0010  0.0000  0.0000  0.0011  0.1481  0.0000  0.4444 </r>
       </set>
       <set comment="band 13">
        <r>  0.0000  0.0307  0.0307  0.0000  0.0000  0.0000  0.4043  0.0000  0.1348 </r>
       </set>
       <set comment="band 14">
        <r>  0.6081  0.1262  0.1262  0.0000  0.0000  0.0028  0.0044  0.0000  0.0131 </r>
       </set>
      </set>
      <set comment="kpoint 192">
       <set comment="band 1">
        <r>  0.0000  0.1647  0.6641  0.1648  0.0000  0.0000  0.0000  0.0000  0.0000 </r>
       </set>
       <set comment="band 2">
        <r>  0.0000  0.4970  0.0000  0.4970  0.0000  0.0000  0.0000  0.0000  0.0000 </r>
       </set>
       <set comment="band 3">
        <r>  0.0000  0.3324  0.3297  0.3323  0.0000  0.0000  0.0000  0.0000  0.0000 </r>
       </set>
       <set comment="band 4">
        <r>  0.0007  0.0014  0.0232  0.0014  0.0002  0.0003  0.7194  0.0003  0.0000 </r>
       </set>
       <set comment="band 5">
        <r>  0.0000  0.0044  0.0000  0.0044  0.0000  0.0009  0.0000  0.0009  0.7455 </r>
       </set>
       <set comment="band 6">
        <r>  0.0041  0.0133  0.0066  0.0133  0.2618  0.3247  0.0005  0.3247  0.0000 </r>
       </set>
       <set comment="band 7">
        <r>  0.0000  0.0109  0.0000  0.0109  0.0000  0.4706  0.0000  0.4706  0.0043 </r>
       </set>
       <set comment="band 8">
        <r>  0.0003  0.0001  0.0039  0.0001  0.7038  0.1366  0.0022  0.1365  0.0000 </r>
       </set>
       <set comment="band 9">
        <r>  0.0490  0.0114  0.5496  0.0114  0.0012  0.0097  0.1042  0.0097  0.0000 </r>
       </set>
       <set comment="band 10">
        <r>  0.0000  0.3289  0.0000  0.3289  0.0000  0.0270  0.0000  0.0270  0.0440 </r>
       </set>
       <set comment="band 11">
        <r>  0.0580  0.2993  0.0058  0.2993  0.0227  0.0287  0.0057  0.0287  0.0000 </r>
       </set>
       <set comment="band 12">
        <r>  0.0000  0.0116  0.0000  0.0116  0.0000  0.0005  0.0000  0.0005  0.6150 </r>
       </set>
       <set comment="band 13">
        <r>  0.0255  0.0086  0.0193  0.0086  0.0002  0.0000  0.5551  0.0000  0.0000 </r>
       </set>
       <set comment="band 14">
        <r>  0.6528  0.0308  0.1351  0.0308  0.0001  0.0007  0.0130  0.0007  0.0000 </r>
       </set>
      </set>
      <set comment="kpoint 193">
       <set comment="band 1">
        <r>  0.0000  0.0000  0.9938  0.0000  0.0000  0.0000  0.0000  0.0000  0.0000 </r>
       </set>
       <set comment="band 2">
        <r>  0.0000  0.0296  0.0000  0.9645  0.0000  0.0000  0.0000  0.0000  0.0000 </r>
       </set>
       <set comment="band 3">
        <r>  0.0000  0.9645  0.0000  0.0296  0.0000  0.0000  0.0000  0.0000  0.0000 </r>
       </set>
       <set comment="band 4">
        <r>  0.0011  0.0000  0.0232  0.0000  0.0000  0.0000  0.7226  0.0000  0.0000 </r>
       </set>
       <set comment="band 5">
        <r>  0.0000  0.0000  0.0000  0.0000  0.0000  0.0000  0.0000  0.0000  0.7591 </r>
       </set>
       <set comment="band 6">
        <r>  0.0000  0.0029  0.0000  0.0197  0.0000  0.1195  0.0000  0.8246  0.0000 </r>
       </set>
       <set comment="band 7">
        <r>  0.0000  0.0197  0.0000  0.0029  0.0000  0.8246  0.0000  0.1195  0.0000 </r>
       </set>
       <set comment="band 8">
        <r>  0.0000  0.0000  0.0000  0.0000  0.9849  0.0000  0.0000  0.0000  0.0000 </r>
       </set>
       <set comment="band 9">
        <r>  0.0660  0.0000  0.5695  0.0000  0.0000  0.0000  0.0963  0.0000  0.0000 </r>
       </set>
       <set comment="band 10">
        <r>  0.0000  0.3286  0.0000  0.3624  0.0000  0.0256  0.0000  0.0282  0.0000 </r>
       </set>
       <set comment="band 11">
        <r>  0.0000  0.3624  0.0000  0.3286  0.0000  0.0282  0.0000  0.0256  0.0000 </r>
       </set>
       <set comment="band 12">
        <r>  0.0000  0.0000  0.0000  0.0000  0.0000  0.0000  0.0000  0.0000  0.6576 </r>
       </set>
       <set comment="band 13">
        <r>  0.0539  0.0000  0.0122  0.0000  0.0000  0.0000  0.5603  0.0000  0.0000 </r>
       </set>
       <set comment="band 14">
        <r>  0.6774  0.0000  0.1392  0.0000  0.0000  0.0000  0.0256  0.0000  0.0000 </r>
       </set>
      </set>
      <set comment="kpoint 194">
       <set comment="band 1">
        <r>  0.0000  0.4969  0.4969  0.0000  0.0000  0.0000  0.0000  0.0000  0.0000 </r>
       </set>
       <set comment="band 2">
        <r>  0.0000  0.0000  0.0000  0.9940  0.0000  0.0000  0.0000  0.0000  0.0000 </r>
       </set>
       <set comment="band 3">
        <r>  0.0000  0.4970  0.4970  0.0000  0.0000  0.0000  0.0000  0.0000  0.0000 </r>
       </set>
       <set comment="band 4">
        <r>  0.0000  0.0043  0.0043  0.0000  0.0000  0.0000  0.5584  0.0000  0.1865 </r>
       </set>
       <set comment="band 5">
        <r>  0.0001  0.0015  0.0015  0.0000  0.0000  0.0003  0.1886  0.0000  0.5646 </r>
       </set>
       <set comment="band 6">
        <r>  0.0000  0.0000  0.0000  0.0126  0.4809  0.0000  0.0000  0.4811  0.0000 </r>
       </set>
       <set comment="band 7">
        <r>  0.0007  0.0066  0.0066  0.0000  0.0000  0.9602  0.0002  0.0000  0.0006 </r>
       </set>
       <set comment="band 8">
        <r>  0.0000  0.0000  0.0000  0.0000  0.4937  0.0000  0.0000  0.4935  0.0000 </r>
       </set>
       <set comment="band 9">
        <r>  0.0000  0.3425  0.3425  0.0000  0.0000  0.0000  0.0328  0.0000  0.0109 </r>
       </set>
       <set comment="band 10">
        <r>  0.0415  0.3202  0.3202  0.0000  0.0000  0.0316  0.0036  0.0000  0.0108 </r>
       </set>
       <set comment="band 11">
        <r>  0.0000  0.0000  0.0000  0.7025  0.0146  0.0000  0.0000  0.0146  0.0000 </r>
       </set>
       <set comment="band 12">
        <r>  0.0043  0.0022  0.0022  0.0000  0.0000  0.0001  0.1620  0.0000  0.4861 </r>
       </set>
       <set comment="band 13">
        <r>  0.0000  0.0104  0.0104  0.0000  0.0000  0.0000  0.4699  0.0000  0.1566 </r>
       </set>
       <set comment="band 14">
        <r>  0.7584  0.0352  0.0352  0.0000  0.0000  0.0002  0.0005  0.0000  0.0014 </r>
       </set>
      </set>
      <set comment="kpoint 195">
       <set comment="band 1">
        <r>  0.0000  0.0369  0.0266  0.9305  0.0000  0.0000  0.0000  0.0000  0.0000 </r>
       </set>
       <set comment="band 2">
        <r>  0.0000  0.7482  0.1857  0.0601  0.0000  0.0000  0.0000  0.0000  0.0000 </r>
       </set>
       <set comment="band 3">
        <r>  0.0000  0.2089  0.7816  0.0034  0.0000  0.0000  0.0000  0.0000  0.0000 </r>
       </set>
       <set comment="band 4">
        <r>  0.0000  0.0000  0.0000  0.0000  0.0000  0.0000  0.0008  0.0000  0.7561 </r>
       </set>
       <set comment="band 5">
        <r>  0.0000  0.0000  0.0000  0.0000  0.0000  0.0000  0.7561  0.0000  0.0008 </r>
       </set>
       <set comment="band 6">
        <r>  0.0000  0.0000  0.0000  0.0000  0.0000  0.3351  0.0000  0.6519  0.0000 </r>
       </set>
       <set comment="band 7">
        <r>  0.0000  0.0000  0.0000  0.0000  0.0010  0.6514  0.0000  0.3346  0.0000 </r>
       </set>
       <set comment="band 8">
        <r>  0.0000  0.0000  0.0000  0.0000  0.9860  0.0005  0.0000  0.0005  0.0000 </r>
       </set>
       <set comment="band 9">
        <r>  0.0000  0.2348  0.2318  0.2499  0.0000  0.0000  0.0000  0.0000  0.0000 </r>
       </set>
       <set comment="band 10">
        <r>  0.0000  0.1621  0.0910  0.4634  0.0000  0.0000  0.0000  0.0000  0.0000 </r>
       </set>
       <set comment="band 11">
        <r>  0.0000  0.3196  0.3937  0.0032  0.0000  0.0000  0.0000  0.0000  0.0000 </r>
       </set>
       <set comment="band 12">
        <r>  0.0000  0.0000  0.0000  0.0000  0.0000  0.0000  0.0002  0.0000  0.6660 </r>
       </set>
       <set comment="band 13">
        <r>  0.0000  0.0000  0.0000  0.0000  0.0000  0.0000  0.6660  0.0000  0.0002 </r>
       </set>
       <set comment="band 14">
        <r>  0.8120  0.0000  0.0000  0.0000  0.0000  0.0000  0.0000  0.0000  0.0000 </r>
       </set>
      </set>
     </set>
    </set>
   </array>
  </projected>
 </calculation>
 <structure name="finalpos" >
  <crystal>
   <varray name="basis" >
    <v>       1.42002600       1.42002600       1.42002600 </v>
    <v>       1.42002600      -1.42002600      -1.42002600 </v>
    <v>      -1.42002600       1.42002600      -1.42002600 </v>
   </varray>
   <i name="volume">     11.45378113 </i>
   <varray name="rec_basis" >
    <v>       0.35210623       0.35210623       0.00000000 </v>
    <v>       0.35210623       0.00000000      -0.35210623 </v>
    <v>       0.00000000       0.35210623      -0.35210623 </v>
   </varray>
  </crystal>
  <varray name="positions" >
   <v>       0.00000000       0.00000000       0.00000000 </v>
  </varray>
 </structure>
</modeling>
